
     Program PWSCF v.6.0 (svn rev. 13079) starts on 30May2020 at 18:11:35 

     This program is part of the open-source Quantum ESPRESSO suite
     for quantum simulation of materials; please cite
         "P. Giannozzi et al., J. Phys.:Condens. Matter 21 395502 (2009);
          URL http://www.quantum-espresso.org", 
     in publications or presentations arising from this work. More details at
     http://www.quantum-espresso.org/quote

     Parallel version (MPI), running on     1 processors
     Waiting for input...
     Reading input from standard input

     Current dimensions of program PWSCF are:
     Max number of different atomic species (ntypx) = 10
     Max number of k-points (npk) =  40000
     Max angular momentum in pseudopotentials (lmaxx) =  3

     Subspace diagonalization in iterative solution of the eigenvalue problem:
     a serial algorithm will be used

     Message from routine setup:
     no reason to have ecutrho>4*ecutwfc

     G-vector sticks info
     --------------------
     sticks:   dense  smooth     PW     G-vecs:    dense   smooth      PW
     Sum        2587     859    253                87843    16889    2741



     bravais-lattice index     =            2
     lattice parameter (alat)  =      10.2625  a.u.
     unit-cell volume          =     270.2088 (a.u.)^3
     number of atoms/cell      =            2
     number of atomic types    =            1
     number of electrons       =         8.00
     number of Kohn-Sham states=            4
     kinetic-energy cutoff     =      60.0000  Ry
     charge density cutoff     =     720.0000  Ry
     convergence threshold     =      1.0E-08
     mixing beta               =       0.7000
     number of iterations used =            8  plain     mixing
     Exchange-correlation      =  SLA  PW   PBE  PBE ( 1  4  3  4 0 0)

     celldm(1)=  10.262500  celldm(2)=   0.000000  celldm(3)=   0.000000
     celldm(4)=   0.000000  celldm(5)=   0.000000  celldm(6)=   0.000000

     crystal axes: (cart. coord. in units of alat)
               a(1) = (  -0.500000   0.000000   0.500000 )  
               a(2) = (   0.000000   0.500000   0.500000 )  
               a(3) = (  -0.500000   0.500000   0.000000 )  

     reciprocal axes: (cart. coord. in units 2 pi/alat)
               b(1) = ( -1.000000 -1.000000  1.000000 )  
               b(2) = (  1.000000  1.000000  1.000000 )  
               b(3) = ( -1.000000  1.000000 -1.000000 )  


     PseudoPot. # 1 for Si read from file:
     ./Si.pbe-rrkj.UPF
     MD5 check sum: 8af8e7039d270e0118f3b3651cf51d3d
     Pseudo is Norm-conserving, Zval =  4.0
     Generated by new atomic code, or converted to UPF format
     Using radial grid of  883 points,  3 beta functions with: 
                l(1) =   0
                l(2) =   0
                l(3) =   1

     atomic species   valence    mass     pseudopotential
        Si             4.00    28.08550     Si( 1.00)

     48 Sym. Ops., with inversion, found (24 have fractional translation)



   Cartesian axes

     site n.     atom                  positions (alat units)
         1           Si  tau(   1) = (   0.0000000   0.0000000   0.0000000  )
         2           Si  tau(   2) = (   0.2500000   0.2500000   0.2500000  )

     number of k points=    10
                       cart. coord. in units 2pi/alat
        k(    1) = (  -0.1250000   0.1250000   0.1250000), wk =   0.0625000
        k(    2) = (  -0.3750000   0.3750000  -0.1250000), wk =   0.1875000
        k(    3) = (   0.3750000  -0.3750000   0.6250000), wk =   0.1875000
        k(    4) = (   0.1250000  -0.1250000   0.3750000), wk =   0.1875000
        k(    5) = (  -0.1250000   0.6250000   0.1250000), wk =   0.1875000
        k(    6) = (   0.6250000  -0.1250000   0.8750000), wk =   0.3750000
        k(    7) = (   0.3750000   0.1250000   0.6250000), wk =   0.3750000
        k(    8) = (  -0.1250000  -0.8750000   0.1250000), wk =   0.1875000
        k(    9) = (  -0.3750000   0.3750000   0.3750000), wk =   0.0625000
        k(   10) = (   0.3750000  -0.3750000   1.1250000), wk =   0.1875000

     Dense  grid:    87843 G-vectors     FFT dimensions: (  64,  64,  64)

     Smooth grid:    16889 G-vectors     FFT dimensions: (  36,  36,  36)

     Estimated max dynamical RAM per process >      54.92Mb

     Initial potential from superposition of free atoms

     starting charge    7.99889, renormalised to    8.00000
     Starting wfc are    8 randomized atomic wfcs

     total cpu time spent up to now is        1.0 secs

     per-process dynamical memory:    48.2 Mb

     Self-consistent Calculation

     iteration #  1     ecut=    60.00 Ry     beta=0.70
     Davidson diagonalization with overlap
     ethr =  1.00E-02,  avg # of iterations =  2.0

     Threshold (ethr) on eigenvalues was too large:
     Diagonalizing with lowered threshold

     Davidson diagonalization with overlap
     ethr =  7.20E-04,  avg # of iterations =  1.3

     total cpu time spent up to now is        2.3 secs

     total energy              =     -15.73868655 Ry
     Harris-Foulkes estimate   =     -15.75225680 Ry
     estimated scf accuracy    <       0.05764188 Ry

     iteration #  2     ecut=    60.00 Ry     beta=0.70
     Davidson diagonalization with overlap
     ethr =  7.21E-04,  avg # of iterations =  1.0

     total cpu time spent up to now is        3.0 secs

     total energy              =     -15.74077333 Ry
     Harris-Foulkes estimate   =     -15.74079177 Ry
     estimated scf accuracy    <       0.00279191 Ry

     iteration #  3     ecut=    60.00 Ry     beta=0.70
     Davidson diagonalization with overlap
     ethr =  3.49E-05,  avg # of iterations =  2.3

     total cpu time spent up to now is        3.9 secs

     total energy              =     -15.74119900 Ry
     Harris-Foulkes estimate   =     -15.74122359 Ry
     estimated scf accuracy    <       0.00007151 Ry

     iteration #  4     ecut=    60.00 Ry     beta=0.70
     Davidson diagonalization with overlap
     ethr =  8.94E-07,  avg # of iterations =  2.7

     total cpu time spent up to now is        4.8 secs

     total energy              =     -15.74122830 Ry
     Harris-Foulkes estimate   =     -15.74122957 Ry
     estimated scf accuracy    <       0.00000463 Ry

     iteration #  5     ecut=    60.00 Ry     beta=0.70
     Davidson diagonalization with overlap
     ethr =  5.79E-08,  avg # of iterations =  2.1

     total cpu time spent up to now is        5.7 secs

     total energy              =     -15.74122929 Ry
     Harris-Foulkes estimate   =     -15.74122937 Ry
     estimated scf accuracy    <       0.00000018 Ry

     iteration #  6     ecut=    60.00 Ry     beta=0.70
     Davidson diagonalization with overlap
     ethr =  2.27E-09,  avg # of iterations =  2.7

     total cpu time spent up to now is        6.6 secs

     total energy              =     -15.74122935 Ry
     Harris-Foulkes estimate   =     -15.74122935 Ry
     estimated scf accuracy    <       0.00000001 Ry

     iteration #  7     ecut=    60.00 Ry     beta=0.70
     Davidson diagonalization with overlap
     ethr =  1.36E-10,  avg # of iterations =  2.6

     total cpu time spent up to now is        7.4 secs

     End of self-consistent calculation

          k =-0.1250 0.1250 0.1250 (  2112 PWs)   bands (ev):

    -5.4694   4.6493   5.9401   5.9401

          k =-0.3750 0.3750-0.1250 (  2117 PWs)   bands (ev):

    -4.4234   1.6392   3.9308   5.4566

          k = 0.3750-0.3750 0.6250 (  2115 PWs)   bands (ev):

    -3.2527  -0.4833   3.9648   4.6706

          k = 0.1250-0.1250 0.3750 (  2106 PWs)   bands (ev):

    -4.9322   3.0372   4.9140   4.9971

          k =-0.1250 0.6250 0.1250 (  2114 PWs)   bands (ev):

    -3.8823   1.3350   3.5689   4.0262

          k = 0.6250-0.1250 0.8750 (  2132 PWs)   bands (ev):

    -2.2050  -0.6501   2.1798   3.2770

          k = 0.3750 0.1250 0.6250 (  2117 PWs)   bands (ev):

    -3.4556   0.4309   2.9232   4.3060

          k =-0.1250-0.8750 0.1250 (  2127 PWs)   bands (ev):

    -2.3835  -0.5469   2.8023   3.5524

          k =-0.3750 0.3750 0.3750 (  2114 PWs)   bands (ev):

    -3.9792   0.3165   5.1447   5.1447

          k = 0.3750-0.3750 1.1250 (  2125 PWs)   bands (ev):

    -2.7493  -0.3672   2.2511   4.3472

     highest occupied level (ev):     5.9401

!    total energy              =     -15.74122935 Ry
     Harris-Foulkes estimate   =     -15.74122935 Ry
     estimated scf accuracy    <          2.5E-11 Ry

     The total energy is the sum of the following terms:

     one-electron contribution =       4.77321926 Ry
     hartree contribution      =       1.09503165 Ry
     xc contribution           =      -4.81264348 Ry
     ewald contribution        =     -16.79683678 Ry

     convergence has been achieved in   7 iterations

     Writing output data file si.save

     init_run     :      0.89s CPU      0.92s WALL (       1 calls)
     electrons    :      6.39s CPU      6.46s WALL (       1 calls)

     Called by init_run:
     wfcinit      :      0.28s CPU      0.28s WALL (       1 calls)
     potinit      :      0.33s CPU      0.35s WALL (       1 calls)

     Called by electrons:
     c_bands      :      2.85s CPU      2.87s WALL (       8 calls)
     sum_band     :      1.33s CPU      1.33s WALL (       8 calls)
     v_of_rho     :      2.26s CPU      2.32s WALL (       8 calls)
     mix_rho      :      0.11s CPU      0.11s WALL (       8 calls)

     Called by c_bands:
     init_us_2    :      0.12s CPU      0.12s WALL (     170 calls)
     cegterg      :      2.76s CPU      2.78s WALL (      80 calls)

     Called by sum_band:

     Called by *egterg:
     h_psi        :      2.80s CPU      2.81s WALL (     257 calls)
     g_psi        :      0.02s CPU      0.02s WALL (     167 calls)
     cdiaghg      :      0.02s CPU      0.02s WALL (     237 calls)

     Called by h_psi:
     h_psi:pot    :      2.79s CPU      2.80s WALL (     257 calls)
     h_psi:calbec :      0.06s CPU      0.06s WALL (     257 calls)
     vloc_psi     :      2.67s CPU      2.68s WALL (     257 calls)
     add_vuspsi   :      0.05s CPU      0.05s WALL (     257 calls)

     General routines
     calbec       :      0.06s CPU      0.06s WALL (     257 calls)
     fft          :      0.66s CPU      0.67s WALL (     111 calls)
     ffts         :      0.03s CPU      0.03s WALL (      16 calls)
     fftw         :      2.40s CPU      2.40s WALL (    2240 calls)
     interpolate  :      0.14s CPU      0.14s WALL (      16 calls)
     davcio       :      0.00s CPU      0.00s WALL (      10 calls)

     Parallel routines
     fft_scatter  :      0.41s CPU      0.42s WALL (    2367 calls)

     PWSCF        :     7.45s CPU         7.54s WALL


   This run was terminated on:  18:11:42  30May2020            

=------------------------------------------------------------------------------=
   JOB DONE.
=------------------------------------------------------------------------------=
