
     Program BANDS v.6.0 (svn rev. 13079) starts on 31May2020 at 16:22:43 

     This program is part of the open-source Quantum ESPRESSO suite
     for quantum simulation of materials; please cite
         "P. Giannozzi et al., J. Phys.:Condens. Matter 21 395502 (2009);
          URL http://www.quantum-espresso.org", 
     in publications or presentations arising from this work. More details at
     http://www.quantum-espresso.org/quote

     Parallel version (MPI), running on     1 processors

     Reading data from directory:
     ./si.save

   Info: using nr1, nr2, nr3 values from input

   Info: using nr1, nr2, nr3 values from input

     IMPORTANT: XC functional enforced from input :
     Exchange-correlation      =  SLA  PW   PBE  PBE ( 1  4  3  4 0 0)
     Any further DFT definition will be discarded
     Please, verify this is what you really want


     G-vector sticks info
     --------------------
     sticks:   dense  smooth     PW     G-vecs:    dense   smooth      PW
     Sum        2587     859    253                87843    16889    2733

     high-symmetry point:  0.5000-0.5000 0.5000   x coordinate   0.0000
     high-symmetry point:  0.0000 0.0000 0.0000   x coordinate   0.8660
     high-symmetry point:  1.0000 0.0000 0.0000   x coordinate   1.8660
     high-symmetry point:  1.0000-0.2500 0.2500   x coordinate   2.2196
     high-symmetry point:  0.0000 0.0000 0.0000   x coordinate   3.2802

     Plottable bands (eV) written to file si.bands.gnu
     Bands written to file si.bands

 **************************************************************************

                    xk=(   0.50000,  -0.50000,   0.50000  )

     zone border point and non-symmorphic group 
     symmetry decomposition not available

 **************************************************************************

 **************************************************************************

                    xk=(   0.47500,  -0.47500,   0.47500  )

     point group C_3v (3m)  
     there are  3 classes
     the character table:

       E     2C3   3s_v 
A_1    1.00  1.00  1.00
A_2    1.00  1.00 -1.00
E      2.00 -1.00  0.00

     the symmetry operations in each class and the name of the first element:

     E        1
                                                                 
     2C3      2    3
                                                                 
     3s_v     4    5    6
                                                                 

     Band symmetry, C_3v (3m)   point group:

     e(  1 -  1) =     -3.37398  eV     1   --> A_1  L_1       
     e(  2 -  2) =     -0.65642  eV     1   --> A_1  L_1       
     e(  3 -  4) =      5.03746  eV     2   --> E    L_3       
     e(  5 -  5) =      7.82853  eV     1   --> A_1  L_1       
     e(  6 -  7) =      9.58256  eV     2   --> E    L_3       
     e(  8 -  8) =     13.98727  eV     1   --> A_1  L_1       

 **************************************************************************

 **************************************************************************

                    xk=(   0.45000,  -0.45000,   0.45000  )

     Band symmetry, C_3v (3m)   point group:

     e(  1 -  1) =     -3.47343  eV     1   --> A_1  L_1       
     e(  2 -  2) =     -0.51081  eV     1   --> A_1  L_1       
     e(  3 -  4) =      5.05089  eV     2   --> E    L_3       
     e(  5 -  5) =      7.84377  eV     1   --> A_1  L_1       
     e(  6 -  7) =      9.59782  eV     2   --> E    L_3       
     e(  8 -  8) =     14.01048  eV     1   --> A_1  L_1       

 **************************************************************************

 **************************************************************************

                    xk=(   0.42500,  -0.42500,   0.42500  )

     Band symmetry, C_3v (3m)   point group:

     e(  1 -  1) =     -3.61894  eV     1   --> A_1  L_1       
     e(  2 -  2) =     -0.28850  eV     1   --> A_1  L_1       
     e(  3 -  4) =      5.07325  eV     2   --> E    L_3       
     e(  5 -  5) =      7.86910  eV     1   --> A_1  L_1       
     e(  6 -  7) =      9.62199  eV     2   --> E    L_3       
     e(  8 -  8) =     14.04662  eV     1   --> A_1  L_1       

 **************************************************************************

 **************************************************************************

                    xk=(   0.40000,  -0.40000,   0.40000  )

     Band symmetry, C_3v (3m)   point group:

     e(  1 -  1) =     -3.79226  eV     1   --> A_1  L_1       
     e(  2 -  2) =     -0.00793  eV     1   --> A_1  L_1       
     e(  3 -  4) =      5.10452  eV     2   --> E    L_3       
     e(  5 -  5) =      7.90440  eV     1   --> A_1  L_1       
     e(  6 -  7) =      9.65309  eV     2   --> E    L_3       
     e(  8 -  8) =     14.09064  eV     1   --> A_1  L_1       

 **************************************************************************

 **************************************************************************

                    xk=(   0.37500,  -0.37500,   0.37500  )

     Band symmetry, C_3v (3m)   point group:

     e(  1 -  1) =     -3.97927  eV     1   --> A_1  L_1       
     e(  2 -  2) =      0.31650  eV     1   --> A_1  L_1       
     e(  3 -  4) =      5.14463  eV     2   --> E    L_3       
     e(  5 -  5) =      7.94948  eV     1   --> A_1  L_1       
     e(  6 -  7) =      9.68817  eV     2   --> E    L_3       
     e(  8 -  8) =     14.13167  eV     1   --> A_1  L_1       

 **************************************************************************

 **************************************************************************

                    xk=(   0.35000,  -0.35000,   0.35000  )

     Band symmetry, C_3v (3m)   point group:

     e(  1 -  1) =     -4.17025  eV     1   --> A_1  L_1       
     e(  2 -  2) =      0.67470  eV     1   --> A_1  L_1       
     e(  3 -  4) =      5.19347  eV     2   --> E    L_3       
     e(  5 -  5) =      8.00406  eV     1   --> A_1  L_1       
     e(  6 -  7) =      9.72315  eV     2   --> E    L_3       
     e(  8 -  8) =     14.14560  eV     1   --> A_1  L_1       

 **************************************************************************

 **************************************************************************

                    xk=(   0.32500,  -0.32500,   0.32500  )

     Band symmetry, C_3v (3m)   point group:

     e(  1 -  1) =     -4.35880  eV     1   --> A_1  L_1       
     e(  2 -  2) =      1.05974  eV     1   --> A_1  L_1       
     e(  3 -  4) =      5.25086  eV     2   --> E    L_3       
     e(  5 -  5) =      8.06775  eV     1   --> A_1  L_1       
     e(  6 -  7) =      9.75269  eV     2   --> E    L_3       
     e(  8 -  8) =     14.08328  eV     1   --> A_1  L_1       

 **************************************************************************

 **************************************************************************

                    xk=(   0.30000,  -0.30000,   0.30000  )

     Band symmetry, C_3v (3m)   point group:

     e(  1 -  1) =     -4.54069  eV     1   --> A_1  L_1       
     e(  2 -  2) =      1.46675  eV     1   --> A_1  L_1       
     e(  3 -  4) =      5.31654  eV     2   --> E    L_3       
     e(  5 -  5) =      8.13999  eV     1   --> A_1  L_1       
     e(  6 -  7) =      9.77034  eV     2   --> E    L_3       
     e(  8 -  8) =     13.83248  eV     1   -->   ?

 **************************************************************************

 **************************************************************************

                    xk=(   0.27500,  -0.27500,   0.27500  )

     Band symmetry, C_3v (3m)   point group:

     e(  1 -  1) =     -4.71307  eV     1   --> A_1  L_1       
     e(  2 -  2) =      1.89201  eV     1   --> A_1  L_1       
     e(  3 -  4) =      5.39009  eV     2   --> E    L_3       
     e(  5 -  5) =      8.22001  eV     1   --> A_1  L_1       
     e(  6 -  7) =      9.76902  eV     2   --> E    L_3       
     e(  8 -  8) =     13.57087  eV     1   --> A_1  L_1       

 **************************************************************************

 **************************************************************************

                    xk=(   0.25000,  -0.25000,   0.25000  )

     Band symmetry, C_3v (3m)   point group:

     e(  1 -  1) =     -4.87397  eV     1   --> A_1  L_1       
     e(  2 -  2) =      2.33246  eV     1   --> A_1  L_1       
     e(  3 -  4) =      5.47092  eV     2   --> E    L_3       
     e(  5 -  5) =      8.30675  eV     1   --> A_1  L_1       
     e(  6 -  7) =      9.74223  eV     2   --> E    L_3       
     e(  8 -  8) =     13.18316  eV     1   --> A_1  L_1       

 **************************************************************************

 **************************************************************************

                    xk=(   0.22500,  -0.22500,   0.22500  )

     Band symmetry, C_3v (3m)   point group:

     e(  1 -  1) =     -5.02203  eV     1   --> A_1  L_1       
     e(  2 -  2) =      2.78526  eV     1   --> A_1  L_1       
     e(  3 -  4) =      5.55819  eV     2   --> E    L_3       
     e(  5 -  5) =      8.39875  eV     1   --> A_1  L_1       
     e(  6 -  7) =      9.68585  eV     2   --> E    L_3       
     e(  8 -  8) =     12.76215  eV     1   --> A_1  L_1       

 **************************************************************************

 **************************************************************************

                    xk=(   0.20000,  -0.20000,   0.20000  )

     Band symmetry, C_3v (3m)   point group:

     e(  1 -  1) =     -5.15625  eV     1   --> A_1  L_1       
     e(  2 -  2) =      3.24742  eV     1   --> A_1  L_1       
     e(  3 -  4) =      5.65071  eV     2   --> E    L_3       
     e(  5 -  5) =      8.49401  eV     1   --> A_1  L_1       
     e(  6 -  7) =      9.59978  eV     2   --> E    L_3       
     e(  8 -  8) =     12.32504  eV     1   --> A_1  L_1       

 **************************************************************************

 **************************************************************************

                    xk=(   0.17500,  -0.17500,   0.17500  )

     Band symmetry, C_3v (3m)   point group:

     e(  1 -  1) =     -5.27589  eV     1   --> A_1  L_1       
     e(  2 -  2) =      3.71546  eV     1   --> A_1  L_1       
     e(  3 -  4) =      5.74684  eV     2   --> E    L_3       
     e(  5 -  5) =      8.58975  eV     1   --> A_1  L_1       
     e(  6 -  7) =      9.48847  eV     2   --> E    L_3       
     e(  8 -  8) =     11.88078  eV     1   --> A_1  L_1       

 **************************************************************************

 **************************************************************************

                    xk=(   0.15000,  -0.15000,   0.15000  )

     Band symmetry, C_3v (3m)   point group:

     e(  1 -  1) =     -5.38042  eV     1   --> A_1  L_1       
     e(  2 -  2) =      4.18487  eV     1   --> A_1  L_1       
     e(  3 -  4) =      5.84431  eV     2   --> E    L_3       
     e(  5 -  5) =      8.68211  eV     1   --> A_1  L_1       
     e(  6 -  7) =      9.35997  eV     2   --> E    L_3       
     e(  8 -  8) =     11.43627  eV     1   --> A_1  L_1       

 **************************************************************************

 **************************************************************************

                    xk=(   0.12500,  -0.12500,   0.12500  )

     Band symmetry, C_3v (3m)   point group:

     e(  1 -  1) =     -5.46944  eV     1   --> A_1  L_1       
     e(  2 -  2) =      4.64923  eV     1   --> A_1  L_1       
     e(  3 -  4) =      5.94009  eV     2   --> E    L_3       
     e(  5 -  5) =      8.76555  eV     1   --> A_1  L_1       
     e(  6 -  7) =      9.22440  eV     2   --> E    L_3       
     e(  8 -  8) =     10.99996  eV     1   --> A_1  L_1       

 **************************************************************************

 **************************************************************************

                    xk=(   0.10000,  -0.10000,   0.10000  )

     Band symmetry, C_3v (3m)   point group:

     e(  1 -  1) =     -5.54262  eV     1   --> A_1  L_1       
     e(  2 -  2) =      5.09871  eV     1   --> A_1  L_1       
     e(  3 -  4) =      6.03019  eV     2   --> E    L_3       
     e(  5 -  5) =      8.83196  eV     1   --> A_1  L_1       
     e(  6 -  7) =      9.09253  eV     2   --> E    L_3       
     e(  8 -  8) =     10.58533  eV     1   --> A_1  L_1       

 **************************************************************************

 **************************************************************************

                    xk=(   0.07500,  -0.07500,   0.07500  )

     Band symmetry, C_3v (3m)   point group:

     e(  1 -  1) =     -5.59976  eV     1   --> A_1  L_1       
     e(  2 -  2) =      5.51711  eV     1   --> A_1  L_1       
     e(  3 -  4) =      6.10962  eV     2   --> E    L_3       
     e(  5 -  5) =      8.86962  eV     1   --> A_1  L_1       
     e(  6 -  7) =      8.97503  eV     2   --> E    L_3       
     e(  8 -  8) =     10.21538  eV     1   --> A_1  L_1       

 **************************************************************************

 **************************************************************************

                    xk=(   0.05000,  -0.05000,   0.05000  )

     Band symmetry, C_3v (3m)   point group:

     e(  1 -  1) =     -5.64068  eV     1   --> A_1  L_1       
     e(  2 -  2) =      5.87675  eV     1   --> A_1  L_1       
     e(  3 -  4) =      6.17262  eV     2   --> E    L_3       
     e(  5 -  5) =      8.86581  eV     1   --> A_1  L_1       
     e(  6 -  7) =      8.88194  eV     2   --> E    L_3       
     e(  8 -  8) =      9.92561  eV     1   --> A_1  L_1       

 **************************************************************************

 **************************************************************************

                    xk=(   0.02500,  -0.02500,   0.02500  )

     Band symmetry, C_3v (3m)   point group:

     e(  1 -  1) =     -5.66527  eV     1   --> A_1  L_1       
     e(  2 -  2) =      6.13248  eV     1   --> A_1  L_1       
     e(  3 -  4) =      6.21342  eV     2   --> E    L_3       
     e(  5 -  6) =      8.82196  eV     2   --> E    L_3       
     e(  7 -  7) =      8.82669  eV     1   --> A_1  L_1       
     e(  8 -  8) =      9.75068  eV     1   --> A_1  L_1       

 **************************************************************************

 **************************************************************************

                    xk=(   0.00000,   0.00000,   0.00000  )

     point group O_h (m-3m) 
     there are 10 classes
     the character table:

       E     8C3   3C2   6C4   6C2'  i     8S6   3s_h  6S4   6s_d 
A_1g   1.00  1.00  1.00  1.00  1.00  1.00  1.00  1.00  1.00  1.00
A_2g   1.00  1.00  1.00 -1.00 -1.00  1.00  1.00  1.00 -1.00 -1.00
E_g    2.00 -1.00  2.00  0.00  0.00  2.00 -1.00  2.00  0.00  0.00
T_1g   3.00  0.00 -1.00  1.00 -1.00  3.00  0.00 -1.00  1.00 -1.00
T_2g   3.00  0.00 -1.00 -1.00  1.00  3.00  0.00 -1.00 -1.00  1.00
A_1u   1.00  1.00  1.00  1.00  1.00 -1.00 -1.00 -1.00 -1.00 -1.00
A_2u   1.00  1.00  1.00 -1.00 -1.00 -1.00 -1.00 -1.00  1.00  1.00
E_u    2.00 -1.00  2.00  0.00  0.00 -2.00  1.00 -2.00  0.00  0.00
T_1u   3.00  0.00 -1.00  1.00 -1.00 -3.00  0.00  1.00 -1.00  1.00
T_2u   3.00  0.00 -1.00 -1.00  1.00 -3.00  0.00  1.00  1.00 -1.00

     the symmetry operations in each class and the name of the first element:

     E        1
                                                                 
     8C3     17   19   20   18   24   21   22   23
                                                                 
     3C2      2    4    3
                                                                 
     6C4      7    8   15   16   12   11
                                                                 
     6C2'     5    6   14   13   10    9
                                                                 
     i       25
                                                                 
     8S6     41   43   44   42   48   45   46   47
                                                                 
     3s_h    26   28   27
                                                                 
     6S4     31   32   39   40   36   35
                                                                 
     6s_d    29   30   38   37   34   33
                                                                 

     Band symmetry, O_h (m-3m)  point group:

     e(  1 -  1) =     -5.67348  eV     1   --> A_1g G_1   G_1+
     e(  2 -  4) =      6.22759  eV     3   --> T_2g G_25' G_5+
     e(  5 -  7) =      8.80122  eV     3   --> T_1u G_15  G_4-
     e(  8 -  8) =      9.69529  eV     1   --> A_2u G_2'  G_2-

 **************************************************************************

 **************************************************************************

                    xk=(   0.03333,   0.00000,   0.00000  )

     point group C_4v (4mm) 
     there are  5 classes
     the character table:

       E     2C4   C2    2s_v  2s_d 
A_1    1.00  1.00  1.00  1.00  1.00
A_2    1.00  1.00  1.00 -1.00 -1.00
B_1    1.00 -1.00  1.00  1.00 -1.00
B_2    1.00 -1.00  1.00 -1.00  1.00
E      2.00  0.00 -2.00  0.00  0.00

     the symmetry operations in each class and the name of the first element:

     E        1
                                                                 
     2C4      3    4
                                                                 
     C2       2
                                                                 
     2s_v     5    6
                                                                 
     2s_d     7    8
                                                                 

     Band symmetry, C_4v (4mm)  point group:

     e(  1 -  1) =     -5.66861  eV     1   --> A_1  G_1 D_1   
     e(  2 -  2) =      6.19525  eV     1   --> B_2  G_4 D_2'  
     e(  3 -  4) =      6.20658  eV     2   --> E    G_5 D_5   
     e(  5 -  5) =      8.78926  eV     1   --> A_1  G_1 D_1   
     e(  6 -  7) =      8.82822  eV     2   --> E    G_5 D_5   
     e(  8 -  8) =      9.72696  eV     1   --> B_2  G_4 D_2'  

 **************************************************************************

 **************************************************************************

                    xk=(   0.06667,   0.00000,   0.00000  )

     Band symmetry, C_4v (4mm)  point group:

     e(  1 -  1) =     -5.65403  eV     1   --> A_1  G_1 D_1   
     e(  2 -  2) =      6.10178  eV     1   --> B_2  G_4 D_2'  
     e(  3 -  4) =      6.14615  eV     2   --> E    G_5 D_5   
     e(  5 -  5) =      8.75400  eV     1   --> A_1  G_1 D_1   
     e(  6 -  7) =      8.90661  eV     2   --> E    G_5 D_5   
     e(  8 -  8) =      9.81779  eV     1   --> B_2  G_4 D_2'  

 **************************************************************************

 **************************************************************************

                    xk=(   0.10000,   0.00000,   0.00000  )

     Band symmetry, C_4v (4mm)  point group:

     e(  1 -  1) =     -5.62973  eV     1   --> A_1  G_1 D_1   
     e(  2 -  2) =      5.95618  eV     1   --> B_2  G_4 D_2'  
     e(  3 -  4) =      6.05289  eV     2   --> E    G_5 D_5   
     e(  5 -  5) =      8.69727  eV     1   --> A_1  G_1 D_1   
     e(  6 -  7) =      9.02976  eV     2   --> E    G_5 D_5   
     e(  8 -  8) =      9.95670  eV     1   --> B_2  G_4 D_2'  

 **************************************************************************

 **************************************************************************

                    xk=(   0.13333,   0.00000,   0.00000  )

     Band symmetry, C_4v (4mm)  point group:

     e(  1 -  1) =     -5.59573  eV     1   --> A_1  G_1 D_1   
     e(  2 -  2) =      5.76944  eV     1   --> B_2  G_4 D_2'  
     e(  3 -  4) =      5.93490  eV     2   --> E    G_5 D_5   
     e(  5 -  5) =      8.62175  eV     1   --> A_1  G_1 D_1   
     e(  6 -  7) =      9.18949  eV     2   --> E    G_5 D_5   
     e(  8 -  8) =     10.12860  eV     1   --> B_2  G_4 D_2'  

 **************************************************************************

 **************************************************************************

                    xk=(   0.16667,   0.00000,   0.00000  )

     Band symmetry, C_4v (4mm)  point group:

     e(  1 -  1) =     -5.55205  eV     1   --> A_1  G_1 D_1   
     e(  2 -  2) =      5.55180  eV     1   --> B_2  G_4 D_2'  
     e(  3 -  4) =      5.79980  eV     2   --> E    G_5 D_5   
     e(  5 -  5) =      8.53063  eV     1   --> A_1  G_1 D_1   
     e(  6 -  7) =      9.37812  eV     2   --> E    G_5 D_5   
     e(  8 -  8) =     10.31573  eV     1   --> B_2  G_4 D_2'  

 **************************************************************************

 **************************************************************************

                    xk=(   0.20000,   0.00000,   0.00000  )

     Band symmetry, C_4v (4mm)  point group:

     e(  1 -  1) =     -5.49872  eV     1   --> A_1  G_1 D_1   
     e(  2 -  2) =      5.31152  eV     1   --> B_2  G_4 D_2'  
     e(  3 -  4) =      5.65380  eV     2   --> E    G_5 D_5   
     e(  5 -  5) =      8.42728  eV     1   --> A_1  G_1 D_1   
     e(  6 -  7) =      9.58931  eV     2   --> E    G_5 D_5   
     e(  8 -  8) =     10.49647  eV     1   --> B_2  G_4 D_2'  

 **************************************************************************

 **************************************************************************

                    xk=(   0.23333,   0.00000,   0.00000  )

     Band symmetry, C_4v (4mm)  point group:

     e(  1 -  1) =     -5.43577  eV     1   --> A_1  G_1 D_1   
     e(  2 -  2) =      5.05478  eV     1   --> B_2  G_4 D_2'  
     e(  3 -  4) =      5.50167  eV     2   --> E    G_5 D_5   
     e(  5 -  5) =      8.31494  eV     1   --> A_1  G_1 D_1   
     e(  6 -  7) =      9.81817  eV     2   --> E    G_5 D_5   
     e(  8 -  8) =     10.64205  eV     1   --> B_2  G_4 D_2'  

 **************************************************************************

 **************************************************************************

                    xk=(   0.26667,   0.00000,   0.00000  )

     Band symmetry, C_4v (4mm)  point group:

     e(  1 -  1) =     -5.36324  eV     1   --> A_1  G_1 D_1   
     e(  2 -  2) =      4.78610  eV     1   --> B_2  G_4 D_2'  
     e(  3 -  4) =      5.34692  eV     2   --> E    G_5 D_5   
     e(  5 -  5) =      8.19661  eV     1   --> A_1  G_1 D_1   
     e(  6 -  7) =     10.06106  eV     2   --> E    G_5 D_5   
     e(  8 -  8) =     10.71651  eV     1   --> B_2  G_4 D_2'  

 **************************************************************************

 **************************************************************************

                    xk=(   0.30000,   0.00000,   0.00000  )

     Band symmetry, C_4v (4mm)  point group:

     e(  1 -  1) =     -5.28118  eV     1   --> A_1  G_1 D_1   
     e(  2 -  2) =      4.50869  eV     1   --> B_2  G_4 D_2'  
     e(  3 -  4) =      5.19216  eV     2   --> E    G_5 D_5   
     e(  5 -  5) =      8.07493  eV     1   --> A_1  G_1 D_1   
     e(  6 -  7) =     10.31523  eV     2   --> E    G_5 D_5   
     e(  8 -  8) =     10.69144  eV     1   --> B_2  G_4 D_2'  

 **************************************************************************

 **************************************************************************

                    xk=(   0.33333,   0.00000,   0.00000  )

     Band symmetry, C_4v (4mm)  point group:

     e(  1 -  1) =     -5.18964  eV     1   --> A_1  G_1 D_1   
     e(  2 -  2) =      4.22488  eV     1   --> B_2  G_4 D_2'  
     e(  3 -  4) =      5.03931  eV     2   --> E    G_5 D_5   
     e(  5 -  5) =      7.95221  eV     1   --> A_1  G_1 D_1   
     e(  6 -  6) =     10.56906  eV     1   --> B_2  G_4 D_2'  
     e(  7 -  8) =     10.57862  eV     2   --> E    G_5 D_5   

 **************************************************************************

 **************************************************************************

                    xk=(   0.36667,   0.00000,   0.00000  )

     Band symmetry, C_4v (4mm)  point group:

     e(  1 -  1) =     -5.08868  eV     1   --> A_1  G_1 D_1   
     e(  2 -  2) =      3.93635  eV     1   --> B_2  G_4 D_2'  
     e(  3 -  4) =      4.88981  eV     2   --> E    G_5 D_5   
     e(  5 -  5) =      7.83040  eV     1   --> A_1  G_1 D_1   
     e(  6 -  6) =     10.37755  eV     1   --> B_2  G_4 D_2'  
     e(  7 -  8) =     10.84964  eV     2   --> E    G_5 D_5   

 **************************************************************************

 **************************************************************************

                    xk=(   0.40000,   0.00000,   0.00000  )

     Band symmetry, C_4v (4mm)  point group:

     e(  1 -  1) =     -4.97838  eV     1   --> A_1  G_1 D_1   
     e(  2 -  2) =      3.64433  eV     1   --> B_2  G_4 D_2'  
     e(  3 -  4) =      4.74476  eV     2   --> E    G_5 D_5   
     e(  5 -  5) =      7.71116  eV     1   --> A_1  G_1 D_1   
     e(  6 -  6) =     10.14664  eV     1   --> B_2  G_4 D_2'  
     e(  7 -  8) =     11.12707  eV     2   --> E    G_5 D_5   

 **************************************************************************

 **************************************************************************

                    xk=(   0.43333,   0.00000,   0.00000  )

     Band symmetry, C_4v (4mm)  point group:

     e(  1 -  1) =     -4.85880  eV     1   --> A_1  G_1 D_1   
     e(  2 -  2) =      3.34978  eV     1   --> B_2  G_4 D_2'  
     e(  3 -  4) =      4.60500  eV     2   --> E    G_5 D_5   
     e(  5 -  5) =      7.59590  eV     1   --> A_1  G_1 D_1   
     e(  6 -  6) =      9.89684  eV     1   --> B_2  G_4 D_2'  
     e(  7 -  8) =     11.40996  eV     2   --> E    G_5 D_5   

 **************************************************************************

 **************************************************************************

                    xk=(   0.46667,   0.00000,   0.00000  )

     Band symmetry, C_4v (4mm)  point group:

     e(  1 -  1) =     -4.73003  eV     1   --> A_1  G_1 D_1   
     e(  2 -  2) =      3.05344  eV     1   --> B_2  G_4 D_2'  
     e(  3 -  4) =      4.47120  eV     2   --> E    G_5 D_5   
     e(  5 -  5) =      7.48579  eV     1   --> A_1  G_1 D_1   
     e(  6 -  6) =      9.64065  eV     1   --> B_2  G_4 D_2'  
     e(  7 -  8) =     11.69755  eV     2   --> E    G_5 D_5   

 **************************************************************************

 **************************************************************************

                    xk=(   0.50000,   0.00000,   0.00000  )

     Band symmetry, C_4v (4mm)  point group:

     e(  1 -  1) =     -4.59217  eV     1   --> A_1  G_1 D_1   
     e(  2 -  2) =      2.75592  eV     1   --> B_2  G_4 D_2'  
     e(  3 -  4) =      4.34389  eV     2   --> E    G_5 D_5   
     e(  5 -  5) =      7.38186  eV     1   --> A_1  G_1 D_1   
     e(  6 -  6) =      9.38557  eV     1   --> B_2  G_4 D_2'  
     e(  7 -  8) =     11.98925  eV     2   --> E    G_5 D_5   

 **************************************************************************

 **************************************************************************

                    xk=(   0.53333,   0.00000,   0.00000  )

     Band symmetry, C_4v (4mm)  point group:

     e(  1 -  1) =     -4.44532  eV     1   --> A_1  G_1 D_1   
     e(  2 -  2) =      2.45775  eV     1   --> B_2  G_4 D_2'  
     e(  3 -  4) =      4.22349  eV     2   --> E    G_5 D_5   
     e(  5 -  5) =      7.28495  eV     1   --> A_1  G_1 D_1   
     e(  6 -  6) =      9.13629  eV     1   --> B_2  G_4 D_2'  
     e(  7 -  8) =     12.28458  eV     2   --> E    G_5 D_5   

 **************************************************************************

 **************************************************************************

                    xk=(   0.56667,   0.00000,   0.00000  )

     Band symmetry, C_4v (4mm)  point group:

     e(  1 -  1) =     -4.28959  eV     1   --> A_1  G_1 D_1   
     e(  2 -  2) =      2.15941  eV     1   --> B_2  G_4 D_2'  
     e(  3 -  4) =      4.11035  eV     2   --> E    G_5 D_5   
     e(  5 -  5) =      7.19580  eV     1   --> A_1  G_1 D_1   
     e(  6 -  6) =      8.89578  eV     1   --> B_2  G_4 D_2'  
     e(  7 -  8) =     12.58319  eV     2   --> E    G_5 D_5   

 **************************************************************************

 **************************************************************************

                    xk=(   0.60000,   0.00000,   0.00000  )

     Band symmetry, C_4v (4mm)  point group:

     e(  1 -  1) =     -4.12511  eV     1   --> A_1  G_1 D_1   
     e(  2 -  2) =      1.86136  eV     1   --> B_2  G_4 D_2'  
     e(  3 -  4) =      4.00476  eV     2   --> E    G_5 D_5   
     e(  5 -  5) =      7.11508  eV     1   --> A_1  G_1 D_1   
     e(  6 -  6) =      8.66605  eV     1   --> B_2  G_4 D_2'  
     e(  7 -  8) =     12.88478  eV     2   --> E    G_5 D_5   

 **************************************************************************

 **************************************************************************

                    xk=(   0.63333,   0.00000,   0.00000  )

     Band symmetry, C_4v (4mm)  point group:

     e(  1 -  1) =     -3.95202  eV     1   --> A_1  G_1 D_1   
     e(  2 -  2) =      1.56404  eV     1   --> B_2  G_4 D_2'  
     e(  3 -  4) =      3.90694  eV     2   --> E    G_5 D_5   
     e(  5 -  5) =      7.04333  eV     1   --> A_1  G_1 D_1   
     e(  6 -  6) =      8.44841  eV     1   --> B_2  G_4 D_2'  
     e(  7 -  8) =     13.18914  eV     2   --> E    G_5 D_5   

 **************************************************************************

 **************************************************************************

                    xk=(   0.66667,   0.00000,   0.00000  )

     Band symmetry, C_4v (4mm)  point group:

     e(  1 -  1) =     -3.77046  eV     1   --> A_1  G_1 D_1   
     e(  2 -  2) =      1.26788  eV     1   --> B_2  G_4 D_2'  
     e(  3 -  4) =      3.81711  eV     2   --> E    G_5 D_5   
     e(  5 -  5) =      6.98106  eV     1   --> A_1  G_1 D_1   
     e(  6 -  6) =      8.24376  eV     1   --> B_2  G_4 D_2'  
     e(  7 -  8) =     13.49609  eV     2   --> E    G_5 D_5   

 **************************************************************************

 **************************************************************************

                    xk=(   0.70000,   0.00000,   0.00000  )

     Band symmetry, C_4v (4mm)  point group:

     e(  1 -  1) =     -3.58059  eV     1   --> A_1  G_1 D_1   
     e(  2 -  2) =      0.97335  eV     1   --> B_2  G_4 D_2'  
     e(  3 -  4) =      3.73541  eV     2   --> E    G_5 D_5   
     e(  5 -  5) =      6.92873  eV     1   --> A_1  G_1 D_1   
     e(  6 -  6) =      8.05267  eV     1   --> B_2  G_4 D_2'  
     e(  7 -  8) =     13.80545  eV     2   --> E    G_5 D_5   

 **************************************************************************

 **************************************************************************

                    xk=(   0.73333,   0.00000,   0.00000  )

     Band symmetry, C_4v (4mm)  point group:

     e(  1 -  1) =     -3.38260  eV     1   --> A_1  G_1 D_1   
     e(  2 -  2) =      0.68087  eV     1   --> B_2  G_4 D_2'  
     e(  3 -  4) =      3.66200  eV     2   --> E    G_5 D_5   
     e(  5 -  5) =      6.88674  eV     1   --> A_1  G_1 D_1   
     e(  6 -  6) =      7.87552  eV     1   --> B_2  G_4 D_2'  
     e(  7 -  8) =     14.11702  eV     2   --> E    G_5 D_5   

 **************************************************************************

 **************************************************************************

                    xk=(   0.76667,   0.00000,   0.00000  )

     Band symmetry, C_4v (4mm)  point group:

     e(  1 -  1) =     -3.17667  eV     1   --> A_1  G_1 D_1   
     e(  2 -  2) =      0.39089  eV     1   --> B_2  G_4 D_2'  
     e(  3 -  4) =      3.59698  eV     2   --> E    G_5 D_5   
     e(  5 -  5) =      6.85548  eV     1   --> A_1  G_1 D_1   
     e(  6 -  6) =      7.71249  eV     1   --> B_2  G_4 D_2'  
     e(  7 -  8) =     14.43053  eV     2   --> E    G_5 D_5   

 **************************************************************************

 **************************************************************************

                    xk=(   0.80000,   0.00000,   0.00000  )

     Band symmetry, C_4v (4mm)  point group:

     e(  1 -  1) =     -2.96302  eV     1   --> A_1  G_1 D_1   
     e(  2 -  2) =      0.10385  eV     1   --> B_2  G_4 D_2'  
     e(  3 -  4) =      3.54046  eV     2   --> E    G_5 D_5   
     e(  5 -  5) =      6.83529  eV     1   --> A_1  G_1 D_1   
     e(  6 -  6) =      7.56367  eV     1   --> B_2  G_4 D_2'  
     e(  7 -  8) =     14.74552  eV     2   --> E    G_5 D_5   

 **************************************************************************

 **************************************************************************

                    xk=(   0.83333,   0.00000,   0.00000  )

     Band symmetry, C_4v (4mm)  point group:

     e(  1 -  1) =     -2.74185  eV     1   --> A_1  G_1 D_1   
     e(  2 -  2) =     -0.17979  eV     1   --> B_2  G_4 D_2'  
     e(  3 -  4) =      3.49250  eV     2   --> E    G_5 D_5   
     e(  5 -  5) =      6.82650  eV     1   --> A_1  G_1 D_1   
     e(  6 -  6) =      7.42904  eV     1   --> B_2  G_4 D_2'  
     e(  7 -  8) =     15.06114  eV     2   --> E    G_5 D_5   

 **************************************************************************

 **************************************************************************

                    xk=(   0.86667,   0.00000,   0.00000  )

     Band symmetry, C_4v (4mm)  point group:

     e(  1 -  1) =     -2.51342  eV     1   --> A_1  G_1 D_1   
     e(  2 -  2) =     -0.45962  eV     1   --> B_2  G_4 D_2'  
     e(  3 -  4) =      3.45318  eV     2   --> E    G_5 D_5   
     e(  5 -  5) =      6.82943  eV     1   --> A_1  G_1 D_1   
     e(  6 -  6) =      7.30852  eV     1   --> B_2  G_4 D_2'  
     e(  7 -  8) =     15.37573  eV     2   --> E    G_5 D_5   

 **************************************************************************

 **************************************************************************

                    xk=(   0.90000,   0.00000,   0.00000  )

     Band symmetry, C_4v (4mm)  point group:

     e(  1 -  1) =     -2.27799  eV     1   --> A_1  G_1 D_1   
     e(  2 -  2) =     -0.73521  eV     1   --> B_2  G_4 D_2'  
     e(  3 -  4) =      3.42255  eV     2   --> E    G_5 D_5   
     e(  5 -  5) =      6.84439  eV     1   --> A_1  G_1 D_1   
     e(  6 -  6) =      7.20196  eV     1   --> B_2  G_4 D_2'  
     e(  7 -  8) =     15.68563  eV     2   --> E    G_5 D_5   

 **************************************************************************

 **************************************************************************

                    xk=(   0.93333,   0.00000,   0.00000  )

     Band symmetry, C_4v (4mm)  point group:

     e(  1 -  1) =     -2.03582  eV     1   --> A_1  G_1 D_1   
     e(  2 -  2) =     -1.00615  eV     1   --> B_2  G_4 D_2'  
     e(  3 -  4) =      3.40065  eV     2   --> E    G_5 D_5   
     e(  5 -  5) =      6.87165  eV     1   --> A_1  G_1 D_1   
     e(  6 -  6) =      7.10920  eV     1   --> B_2  G_4 D_2'  
     e(  7 -  8) =     15.98151  eV     2   --> E    G_5 D_5   

 **************************************************************************

 **************************************************************************

                    xk=(   0.96667,   0.00000,   0.00000  )

     Band symmetry, C_4v (4mm)  point group:

     e(  1 -  1) =     -1.78723  eV     1   --> A_1  G_1 D_1   
     e(  2 -  2) =     -1.27204  eV     1   --> B_2  G_4 D_2'  
     e(  3 -  4) =      3.38749  eV     2   --> E    G_5 D_5   
     e(  5 -  5) =      6.91150  eV     1   --> A_1  G_1 D_1   
     e(  6 -  6) =      7.03002  eV     1   --> B_2  G_4 D_2'  
     e(  7 -  8) =     16.23432  eV     2   --> E    G_5 D_5   

 **************************************************************************

 **************************************************************************

                    xk=(   1.00000,   0.00000,   0.00000  )

     zone border point and non-symmorphic group 
     symmetry decomposition not available

 **************************************************************************

 **************************************************************************

                    xk=(   1.00000,  -0.02500,   0.02500  )

     zone border point and non-symmorphic group 
     symmetry decomposition not available

 **************************************************************************

 **************************************************************************

                    xk=(   1.00000,  -0.05000,   0.05000  )

     zone border point and non-symmorphic group 
     symmetry decomposition not available

 **************************************************************************

 **************************************************************************

                    xk=(   1.00000,  -0.07500,   0.07500  )

     zone border point and non-symmorphic group 
     symmetry decomposition not available

 **************************************************************************

 **************************************************************************

                    xk=(   1.00000,  -0.10000,   0.10000  )

     zone border point and non-symmorphic group 
     symmetry decomposition not available

 **************************************************************************

 **************************************************************************

                    xk=(   1.00000,  -0.12500,   0.12500  )

     zone border point and non-symmorphic group 
     symmetry decomposition not available

 **************************************************************************

 **************************************************************************

                    xk=(   1.00000,  -0.15000,   0.15000  )

     zone border point and non-symmorphic group 
     symmetry decomposition not available

 **************************************************************************

 **************************************************************************

                    xk=(   1.00000,  -0.17500,   0.17500  )

     zone border point and non-symmorphic group 
     symmetry decomposition not available

 **************************************************************************

 **************************************************************************

                    xk=(   1.00000,  -0.20000,   0.20000  )

     zone border point and non-symmorphic group 
     symmetry decomposition not available

 **************************************************************************

 **************************************************************************

                    xk=(   1.00000,  -0.22500,   0.22500  )

     zone border point and non-symmorphic group 
     symmetry decomposition not available

 **************************************************************************

 **************************************************************************

                    xk=(   1.00000,  -0.25000,   0.25000  )

     zone border point and non-symmorphic group 
     symmetry decomposition not available

 **************************************************************************

 **************************************************************************

                    xk=(   0.96667,  -0.24167,   0.24167  )

     point group C_s (m)    
     there are  2 classes
     the character table:

       E     s    
A'     1.00  1.00
A''    1.00 -1.00

     the symmetry operations in each class and the name of the first element:

     E        1
                                                                 
     s        2
                                                                 

     Band symmetry, C_s (m)     point group:

     e(  1 -  1) =     -1.94564  eV     1   --> A'             
     e(  2 -  2) =     -0.94640  eV     1   --> A'             
     e(  3 -  3) =      1.98183  eV     1   --> A'             
     e(  4 -  4) =      3.78637  eV     1   --> A''            
     e(  5 -  5) =      7.43241  eV     1   --> A'             
     e(  6 -  6) =     10.21001  eV     1   --> A'             
     e(  7 -  7) =     13.73220  eV     1   --> A''            
     e(  8 -  8) =     14.12670  eV     1   --> A'             

 **************************************************************************

 **************************************************************************

                    xk=(   0.93333,  -0.23333,   0.23333  )

     Band symmetry, C_s (m)     point group:

     e(  1 -  1) =     -2.03173  eV     1   --> A'             
     e(  2 -  2) =     -0.86996  eV     1   --> A'             
     e(  3 -  3) =      2.05526  eV     1   --> A'             
     e(  4 -  4) =      3.77212  eV     1   --> A''            
     e(  5 -  5) =      7.41905  eV     1   --> A'             
     e(  6 -  6) =     10.06274  eV     1   --> A'             
     e(  7 -  7) =     13.64606  eV     1   --> A''            
     e(  8 -  8) =     13.91070  eV     1   --> A'             

 **************************************************************************

 **************************************************************************

                    xk=(   0.90000,  -0.22500,   0.22500  )

     Band symmetry, C_s (m)     point group:

     e(  1 -  1) =     -2.17779  eV     1   --> A'             
     e(  2 -  2) =     -0.73354  eV     1   --> A'             
     e(  3 -  3) =      2.15282  eV     1   --> A'             
     e(  4 -  4) =      3.76693  eV     1   --> A''            
     e(  5 -  5) =      7.41788  eV     1   --> A'             
     e(  6 -  6) =      9.92964  eV     1   --> A'             
     e(  7 -  7) =     13.51327  eV     1   --> A''            
     e(  8 -  8) =     13.68863  eV     1   --> A'             

 **************************************************************************

 **************************************************************************

                    xk=(   0.86667,  -0.21667,   0.21667  )

     Band symmetry, C_s (m)     point group:

     e(  1 -  1) =     -2.35795  eV     1   --> A'             
     e(  2 -  2) =     -0.55955  eV     1   --> A'             
     e(  3 -  3) =      2.27072  eV     1   --> A'             
     e(  4 -  4) =      3.77092  eV     1   --> A''            
     e(  5 -  5) =      7.42847  eV     1   --> A'             
     e(  6 -  6) =      9.81168  eV     1   --> A'             
     e(  7 -  7) =     13.36361  eV     1   --> A''            
     e(  8 -  8) =     13.46599  eV     1   --> A'             

 **************************************************************************

 **************************************************************************

                    xk=(   0.83333,  -0.20833,   0.20833  )

     Band symmetry, C_s (m)     point group:

     e(  1 -  1) =     -2.55563  eV     1   --> A'             
     e(  2 -  2) =     -0.36180  eV     1   --> A'             
     e(  3 -  3) =      2.40573  eV     1   --> A'             
     e(  4 -  4) =      3.78419  eV     1   --> A''            
     e(  5 -  5) =      7.45021  eV     1   --> A'             
     e(  6 -  6) =      9.70995  eV     1   --> A'             
     e(  7 -  7) =     13.20844  eV     1   --> A''            
     e(  8 -  8) =     13.24412  eV     1   --> A'             

 **************************************************************************

 **************************************************************************

                    xk=(   0.80000,  -0.20000,   0.20000  )

     Band symmetry, C_s (m)     point group:

     e(  1 -  1) =     -2.76138  eV     1   --> A'             
     e(  2 -  2) =     -0.14751  eV     1   --> A'             
     e(  3 -  3) =      2.55514  eV     1   --> A'             
     e(  4 -  4) =      3.80679  eV     1   --> A''            
     e(  5 -  5) =      7.48218  eV     1   --> A'             
     e(  6 -  6) =      9.62574  eV     1   --> A'             
     e(  7 -  7) =     13.02353  eV     1   --> A'             
     e(  8 -  8) =     13.05219  eV     1   --> A''            

 **************************************************************************

 **************************************************************************

                    xk=(   0.76667,  -0.19167,   0.19167  )

     Band symmetry, C_s (m)     point group:

     e(  1 -  1) =     -2.96967  eV     1   --> A'             
     e(  2 -  2) =      0.07951  eV     1   --> A'             
     e(  3 -  3) =      2.71660  eV     1   --> A'             
     e(  4 -  4) =      3.83876  eV     1   --> A''            
     e(  5 -  5) =      7.52318  eV     1   --> A'             
     e(  6 -  6) =      9.56058  eV     1   --> A'             
     e(  7 -  7) =     12.80451  eV     1   --> A'             
     e(  8 -  8) =     12.89643  eV     1   --> A''            

 **************************************************************************

 **************************************************************************

                    xk=(   0.73333,  -0.18333,   0.18333  )

     Band symmetry, C_s (m)     point group:

     e(  1 -  1) =     -3.17703  eV     1   --> A'             
     e(  2 -  2) =      0.31714  eV     1   --> A'             
     e(  3 -  3) =      2.88807  eV     1   --> A'             
     e(  4 -  4) =      3.88009  eV     1   --> A''            
     e(  5 -  5) =      7.57168  eV     1   --> A'             
     e(  6 -  6) =      9.51623  eV     1   --> A'             
     e(  7 -  7) =     12.58724  eV     1   --> A'             
     e(  8 -  8) =     12.74136  eV     1   --> A''            

 **************************************************************************

 **************************************************************************

                    xk=(   0.70000,  -0.17500,   0.17500  )

     Band symmetry, C_s (m)     point group:

     e(  1 -  1) =     -3.38112  eV     1   --> A'             
     e(  2 -  2) =      0.56410  eV     1   --> A'             
     e(  3 -  3) =      3.06771  eV     1   --> A'             
     e(  4 -  4) =      3.93078  eV     1   --> A''            
     e(  5 -  5) =      7.62583  eV     1   --> A'             
     e(  6 -  6) =      9.49462  eV     1   --> A'             
     e(  7 -  7) =     12.37193  eV     1   --> A'             
     e(  8 -  8) =     12.58644  eV     1   --> A''            

 **************************************************************************

 **************************************************************************

                    xk=(   0.66667,  -0.16667,   0.16667  )

     Band symmetry, C_s (m)     point group:

     e(  1 -  1) =     -3.58030  eV     1   --> A'             
     e(  2 -  2) =      0.81959  eV     1   --> A'             
     e(  3 -  3) =      3.25385  eV     1   --> A'             
     e(  4 -  4) =      3.99077  eV     1   --> A''            
     e(  5 -  5) =      7.68362  eV     1   --> A'             
     e(  6 -  6) =      9.49771  eV     1   --> A'             
     e(  7 -  7) =     12.15883  eV     1   --> A'             
     e(  8 -  8) =     12.43057  eV     1   --> A''            

 **************************************************************************

 **************************************************************************

                    xk=(   0.63333,  -0.15833,   0.15833  )

     Band symmetry, C_s (m)     point group:

     e(  1 -  1) =     -3.77335  eV     1   --> A'             
     e(  2 -  2) =      1.08303  eV     1   --> A'             
     e(  3 -  3) =      3.44495  eV     1   --> A'             
     e(  4 -  4) =      4.05998  eV     1   --> A''            
     e(  5 -  5) =      7.74301  eV     1   --> A'             
     e(  6 -  6) =      9.52715  eV     1   --> A'             
     e(  7 -  7) =     11.94831  eV     1   --> A'             
     e(  8 -  8) =     12.27230  eV     1   --> A''            

 **************************************************************************

 **************************************************************************

                    xk=(   0.60000,  -0.15000,   0.15000  )

     Band symmetry, C_s (m)     point group:

     e(  1 -  1) =     -3.95935  eV     1   --> A'             
     e(  2 -  2) =      1.35401  eV     1   --> A'             
     e(  3 -  3) =      3.63958  eV     1   --> A'             
     e(  4 -  4) =      4.13831  eV     1   --> A''            
     e(  5 -  5) =      7.80230  eV     1   --> A'             
     e(  6 -  6) =      9.58396  eV     1   --> A'             
     e(  7 -  7) =     11.74097  eV     1   --> A'             
     e(  8 -  8) =     12.10993  eV     1   --> A''            

 **************************************************************************

 **************************************************************************

                    xk=(   0.56667,  -0.14167,   0.14167  )

     Band symmetry, C_s (m)     point group:

     e(  1 -  1) =     -4.13760  eV     1   --> A'             
     e(  2 -  2) =      1.63214  eV     1   --> A'             
     e(  3 -  3) =      3.83636  eV     1   --> A'             
     e(  4 -  4) =      4.22560  eV     1   --> A''            
     e(  5 -  5) =      7.86036  eV     1   --> A'             
     e(  6 -  6) =      9.66786  eV     1   --> A'             
     e(  7 -  7) =     11.53777  eV     1   --> A'             
     e(  8 -  8) =     11.94160  eV     1   --> A''            

 **************************************************************************

 **************************************************************************

                    xk=(   0.53333,  -0.13333,   0.13333  )

     Band symmetry, C_s (m)     point group:

     e(  1 -  1) =     -4.30751  eV     1   --> A'             
     e(  2 -  2) =      1.91710  eV     1   --> A'             
     e(  3 -  3) =      4.03403  eV     1   --> A'             
     e(  4 -  4) =      4.32167  eV     1   --> A''            
     e(  5 -  5) =      7.91685  eV     1   --> A'             
     e(  6 -  6) =      9.77676  eV     1   --> A'             
     e(  7 -  7) =     11.34042  eV     1   --> A'             
     e(  8 -  8) =     11.76554  eV     1   --> A''            

 **************************************************************************

 **************************************************************************

                    xk=(   0.50000,  -0.12500,   0.12500  )

     Band symmetry, C_s (m)     point group:

     e(  1 -  1) =     -4.46864  eV     1   --> A'             
     e(  2 -  2) =      2.20852  eV     1   --> A'             
     e(  3 -  3) =      4.23135  eV     1   --> A'             
     e(  4 -  4) =      4.42626  eV     1   --> A''            
     e(  5 -  5) =      7.97215  eV     1   --> A'             
     e(  6 -  6) =      9.90554  eV     1   --> A'             
     e(  7 -  7) =     11.15228  eV     1   --> A'             
     e(  8 -  8) =     11.58025  eV     1   --> A''            

 **************************************************************************

 **************************************************************************

                    xk=(   0.46667,  -0.11667,   0.11667  )

     Band symmetry, C_s (m)     point group:

     e(  1 -  1) =     -4.62059  eV     1   --> A'             
     e(  2 -  2) =      2.50600  eV     1   --> A'             
     e(  3 -  3) =      4.42713  eV     1   --> A'             
     e(  4 -  4) =      4.53908  eV     1   --> A''            
     e(  5 -  5) =      8.02720  eV     1   --> A'             
     e(  6 -  6) =     10.04327  eV     1   --> A'             
     e(  7 -  7) =     10.98117  eV     1   --> A'             
     e(  8 -  8) =     11.38472  eV     1   --> A''            

 **************************************************************************

 **************************************************************************

                    xk=(   0.43333,  -0.10833,   0.10833  )

     Band symmetry, C_s (m)     point group:

     e(  1 -  1) =     -4.76306  eV     1   --> A'             
     e(  2 -  2) =      2.80908  eV     1   --> A'             
     e(  3 -  3) =      4.62022  eV     1   --> A'             
     e(  4 -  4) =      4.65972  eV     1   --> A''            
     e(  5 -  5) =      8.08312  eV     1   --> A'             
     e(  6 -  6) =     10.16402  eV     1   --> A'             
     e(  7 -  7) =     10.84819  eV     1   --> A'             
     e(  8 -  8) =     11.17873  eV     1   --> A''            

 **************************************************************************

 **************************************************************************

                    xk=(   0.40000,  -0.10000,   0.10000  )

     Band symmetry, C_s (m)     point group:

     e(  1 -  1) =     -4.89577  eV     1   --> A'             
     e(  2 -  2) =      3.11717  eV     1   --> A'             
     e(  3 -  3) =      4.78770  eV     1   --> A''            
     e(  4 -  4) =      4.80947  eV     1   --> A'             
     e(  5 -  5) =      8.14103  eV     1   --> A'             
     e(  6 -  6) =     10.21111  eV     1   --> A'             
     e(  7 -  7) =     10.80262  eV     1   --> A'             
     e(  8 -  8) =     10.96286  eV     1   --> A''            

 **************************************************************************

 **************************************************************************

                    xk=(   0.36667,  -0.09167,   0.09167  )

     Band symmetry, C_s (m)     point group:

     e(  1 -  1) =     -5.01852  eV     1   --> A'             
     e(  2 -  2) =      3.42951  eV     1   --> A'             
     e(  3 -  3) =      4.92236  eV     1   --> A''            
     e(  4 -  4) =      4.99370  eV     1   --> A'             
     e(  5 -  5) =      8.20177  eV     1   --> A'             
     e(  6 -  6) =     10.14634  eV     1   --> A'             
     e(  7 -  7) =     10.73861  eV     1   --> A''            
     e(  8 -  8) =     10.87065  eV     1   --> A'             

 **************************************************************************

 **************************************************************************

                    xk=(   0.33333,  -0.08333,   0.08333  )

     Band symmetry, C_s (m)     point group:

     e(  1 -  1) =     -5.13112  eV     1   --> A'             
     e(  2 -  2) =      3.74515  eV     1   --> A'             
     e(  3 -  3) =      5.06289  eV     1   --> A''            
     e(  4 -  4) =      5.17168  eV     1   --> A'             
     e(  5 -  5) =      8.26576  eV     1   --> A'             
     e(  6 -  6) =     10.01664  eV     1   --> A'             
     e(  7 -  7) =     10.50822  eV     1   --> A''            
     e(  8 -  8) =     10.98450  eV     1   --> A'             

 **************************************************************************

 **************************************************************************

                    xk=(   0.30000,  -0.07500,   0.07500  )

     Band symmetry, C_s (m)     point group:

     e(  1 -  1) =     -5.23340  eV     1   --> A'             
     e(  2 -  2) =      4.06280  eV     1   --> A'             
     e(  3 -  3) =      5.20819  eV     1   --> A''            
     e(  4 -  4) =      5.34211  eV     1   --> A'             
     e(  5 -  5) =      8.33295  eV     1   --> A'             
     e(  6 -  6) =      9.86548  eV     1   --> A'             
     e(  7 -  7) =     10.27456  eV     1   --> A''            
     e(  8 -  8) =     11.06544  eV     1   --> A'             

 **************************************************************************

 **************************************************************************

                    xk=(   0.26667,  -0.06667,   0.06667  )

     Band symmetry, C_s (m)     point group:

     e(  1 -  1) =     -5.32523  eV     1   --> A'             
     e(  2 -  2) =      4.38071  eV     1   --> A'             
     e(  3 -  3) =      5.35682  eV     1   --> A''            
     e(  4 -  4) =      5.50352  eV     1   --> A'             
     e(  5 -  5) =      8.40273  eV     1   --> A'             
     e(  6 -  6) =      9.70977  eV     1   --> A'             
     e(  7 -  7) =     10.04101  eV     1   --> A''            
     e(  8 -  8) =     11.05281  eV     1   --> A'             

 **************************************************************************

 **************************************************************************

                    xk=(   0.23333,  -0.05833,   0.05833  )

     Band symmetry, C_s (m)     point group:

     e(  1 -  1) =     -5.40650  eV     1   --> A'             
     e(  2 -  2) =      4.69643  eV     1   --> A'             
     e(  3 -  3) =      5.50685  eV     1   --> A''            
     e(  4 -  4) =      5.65430  eV     1   --> A'             
     e(  5 -  5) =      8.47388  eV     1   --> A'             
     e(  6 -  6) =      9.55610  eV     1   --> A'             
     e(  7 -  7) =      9.81144  eV     1   --> A''            
     e(  8 -  8) =     10.92499  eV     1   --> A'             

 **************************************************************************

 **************************************************************************

                    xk=(   0.20000,  -0.05000,   0.05000  )

     Band symmetry, C_s (m)     point group:

     e(  1 -  1) =     -5.47711  eV     1   --> A'             
     e(  2 -  2) =      5.00647  eV     1   --> A'             
     e(  3 -  3) =      5.65562  eV     1   --> A''            
     e(  4 -  4) =      5.79257  eV     1   --> A'             
     e(  5 -  5) =      8.54454  eV     1   --> A'             
     e(  6 -  6) =      9.40759  eV     1   --> A'             
     e(  7 -  7) =      9.59023  eV     1   --> A''            
     e(  8 -  8) =     10.71408  eV     1   --> A'             

 **************************************************************************

 **************************************************************************

                    xk=(   0.16667,  -0.04167,   0.04167  )

     Band symmetry, C_s (m)     point group:

     e(  1 -  1) =     -5.53698  eV     1   --> A'             
     e(  2 -  2) =      5.30572  eV     1   --> A'             
     e(  3 -  3) =      5.79953  eV     1   --> A''            
     e(  4 -  4) =      5.91620  eV     1   --> A'             
     e(  5 -  5) =      8.61227  eV     1   --> A'             
     e(  6 -  6) =      9.26595  eV     1   --> A'             
     e(  7 -  7) =      9.38253  eV     1   --> A''            
     e(  8 -  8) =     10.46773  eV     1   --> A'             

 **************************************************************************

 **************************************************************************

                    xk=(   0.13333,  -0.03333,   0.03333  )

     Band symmetry, C_s (m)     point group:

     e(  1 -  1) =     -5.58605  eV     1   --> A'             
     e(  2 -  2) =      5.58654  eV     1   --> A'             
     e(  3 -  3) =      5.93367  eV     1   --> A''            
     e(  4 -  4) =      6.02278  eV     1   --> A'             
     e(  5 -  5) =      8.67410  eV     1   --> A'             
     e(  6 -  6) =      9.13253  eV     1   --> A'             
     e(  7 -  7) =      9.19452  eV     1   --> A''            
     e(  8 -  8) =     10.22269  eV     1   --> A'             

 **************************************************************************

 **************************************************************************

                    xk=(   0.10000,  -0.02500,   0.02500  )

     Band symmetry, C_s (m)     point group:

     e(  1 -  1) =     -5.62427  eV     1   --> A'             
     e(  2 -  2) =      5.83749  eV     1   --> A'             
     e(  3 -  3) =      6.05160  eV     1   --> A''            
     e(  4 -  4) =      6.10968  eV     1   --> A'             
     e(  5 -  5) =      8.72680  eV     1   --> A'             
     e(  6 -  6) =      9.00978  eV     1   --> A'             
     e(  7 -  7) =      9.03368  eV     1   --> A''            
     e(  8 -  8) =     10.00562  eV     1   --> A'             

 **************************************************************************

 **************************************************************************

                    xk=(   0.06667,  -0.01667,   0.01667  )

     Band symmetry, C_s (m)     point group:

     e(  1 -  1) =     -5.65160  eV     1   --> A'             
     e(  2 -  2) =      6.04205  eV     1   --> A'             
     e(  3 -  3) =      6.14533  eV     1   --> A''            
     e(  4 -  4) =      6.17424  eV     1   --> A'             
     e(  5 -  5) =      8.76718  eV     1   --> A'             
     e(  6 -  6) =      8.90416  eV     1   --> A'             
     e(  7 -  7) =      8.90875  eV     1   --> A''            
     e(  8 -  8) =      9.83705  eV     1   --> A'             

 **************************************************************************

 **************************************************************************

                    xk=(   0.03333,  -0.00833,   0.00833  )

     Band symmetry, C_s (m)     point group:

     e(  1 -  1) =     -5.66800  eV     1   --> A'             
     e(  2 -  2) =      6.17895  eV     1   --> A'             
     e(  3 -  3) =      6.20633  eV     1   --> A''            
     e(  4 -  4) =      6.21410  eV     1   --> A'             
     e(  5 -  5) =      8.79256  eV     1   --> A'             
     e(  6 -  6) =      8.82882  eV     1   --> A''            
     e(  7 -  7) =      8.82901  eV     1   --> A'             
     e(  8 -  8) =      9.73120  eV     1   --> A'             

 **************************************************************************

 **************************************************************************

                    xk=(   0.00000,   0.00000,   0.00000  )

     point group O_h (m-3m) 
     there are 10 classes
     the character table:

       E     8C3   3C2   6C4   6C2'  i     8S6   3s_h  6S4   6s_d 
A_1g   1.00  1.00  1.00  1.00  1.00  1.00  1.00  1.00  1.00  1.00
A_2g   1.00  1.00  1.00 -1.00 -1.00  1.00  1.00  1.00 -1.00 -1.00
E_g    2.00 -1.00  2.00  0.00  0.00  2.00 -1.00  2.00  0.00  0.00
T_1g   3.00  0.00 -1.00  1.00 -1.00  3.00  0.00 -1.00  1.00 -1.00
T_2g   3.00  0.00 -1.00 -1.00  1.00  3.00  0.00 -1.00 -1.00  1.00
A_1u   1.00  1.00  1.00  1.00  1.00 -1.00 -1.00 -1.00 -1.00 -1.00
A_2u   1.00  1.00  1.00 -1.00 -1.00 -1.00 -1.00 -1.00  1.00  1.00
E_u    2.00 -1.00  2.00  0.00  0.00 -2.00  1.00 -2.00  0.00  0.00
T_1u   3.00  0.00 -1.00  1.00 -1.00 -3.00  0.00  1.00 -1.00  1.00
T_2u   3.00  0.00 -1.00 -1.00  1.00 -3.00  0.00  1.00  1.00 -1.00

     the symmetry operations in each class and the name of the first element:

     E        1
                                                                 
     8C3     17   19   20   18   24   21   22   23
                                                                 
     3C2      2    4    3
                                                                 
     6C4      7    8   15   16   12   11
                                                                 
     6C2'     5    6   14   13   10    9
                                                                 
     i       25
                                                                 
     8S6     41   43   44   42   48   45   46   47
                                                                 
     3s_h    26   28   27
                                                                 
     6S4     31   32   39   40   36   35
                                                                 
     6s_d    29   30   38   37   34   33
                                                                 

     Band symmetry, O_h (m-3m)  point group:

     e(  1 -  1) =     -5.67348  eV     1   --> A_1g G_1   G_1+
     e(  2 -  4) =      6.22759  eV     3   --> T_2g G_25' G_5+
     e(  5 -  7) =      8.80122  eV     3   --> T_1u G_15  G_4-
     e(  8 -  8) =      9.69529  eV     1   --> A_2u G_2'  G_2-

 **************************************************************************

     BANDS        :    52.91s CPU        57.31s WALL


   This run was terminated on:  16:23:41  31May2020            

=------------------------------------------------------------------------------=
   JOB DONE.
=------------------------------------------------------------------------------=
