
     Program PWSCF v.6.0 (svn rev. 13079) starts on 31May2020 at 16:19:44 

     This program is part of the open-source Quantum ESPRESSO suite
     for quantum simulation of materials; please cite
         "P. Giannozzi et al., J. Phys.:Condens. Matter 21 395502 (2009);
          URL http://www.quantum-espresso.org", 
     in publications or presentations arising from this work. More details at
     http://www.quantum-espresso.org/quote

     Parallel version (MPI), running on     1 processors
     Waiting for input...
     Reading input from standard input

     Current dimensions of program PWSCF are:
     Max number of different atomic species (ntypx) = 10
     Max number of k-points (npk) =  40000
     Max angular momentum in pseudopotentials (lmaxx) =  3

     Atomic positions and unit cell read from directory:
     ./si.save/


     Subspace diagonalization in iterative solution of the eigenvalue problem:
     a serial algorithm will be used

     Message from routine setup:
     no reason to have ecutrho>4*ecutwfc

     G-vector sticks info
     --------------------
     sticks:   dense  smooth     PW     G-vecs:    dense   smooth      PW
     Sum        2587     859    253                87843    16889    2733



     bravais-lattice index     =            2
     lattice parameter (alat)  =      10.2625  a.u.
     unit-cell volume          =     270.2088 (a.u.)^3
     number of atoms/cell      =            2
     number of atomic types    =            1
     number of electrons       =         8.00
     number of Kohn-Sham states=            8
     kinetic-energy cutoff     =      60.0000  Ry
     charge density cutoff     =     720.0000  Ry
     Exchange-correlation      =  SLA  PW   PBE  PBE ( 1  4  3  4 0 0)

     celldm(1)=  10.262500  celldm(2)=   0.000000  celldm(3)=   0.000000
     celldm(4)=   0.000000  celldm(5)=   0.000000  celldm(6)=   0.000000

     crystal axes: (cart. coord. in units of alat)
               a(1) = (  -0.500000   0.000000   0.500000 )  
               a(2) = (   0.000000   0.500000   0.500000 )  
               a(3) = (  -0.500000   0.500000   0.000000 )  

     reciprocal axes: (cart. coord. in units 2 pi/alat)
               b(1) = ( -1.000000 -1.000000  1.000000 )  
               b(2) = (  1.000000  1.000000  1.000000 )  
               b(3) = ( -1.000000  1.000000 -1.000000 )  


     PseudoPot. # 1 for Si read from file:
     ./Si.pbe-rrkj.UPF
     MD5 check sum: 8af8e7039d270e0118f3b3651cf51d3d
     Pseudo is Norm-conserving, Zval =  4.0
     Generated by new atomic code, or converted to UPF format
     Using radial grid of  883 points,  3 beta functions with: 
                l(1) =   0
                l(2) =   0
                l(3) =   1

     atomic species   valence    mass     pseudopotential
        Si             4.00    28.08550     Si( 1.00)

     48 Sym. Ops., with inversion, found (24 have fractional translation)



   Cartesian axes

     site n.     atom                  positions (alat units)
         1           Si  tau(   1) = (   0.0000000   0.0000000   0.0000000  )
         2           Si  tau(   2) = (   0.2500000   0.2500000   0.2500000  )

     number of k points=    91  gaussian smearing, width (Ry)=  0.0100
                       cart. coord. in units 2pi/alat
        k(    1) = (   0.5000000  -0.5000000   0.5000000), wk =   0.0219780
        k(    2) = (   0.4750000  -0.4750000   0.4750000), wk =   0.0219780
        k(    3) = (   0.4500000  -0.4500000   0.4500000), wk =   0.0219780
        k(    4) = (   0.4250000  -0.4250000   0.4250000), wk =   0.0219780
        k(    5) = (   0.4000000  -0.4000000   0.4000000), wk =   0.0219780
        k(    6) = (   0.3750000  -0.3750000   0.3750000), wk =   0.0219780
        k(    7) = (   0.3500000  -0.3500000   0.3500000), wk =   0.0219780
        k(    8) = (   0.3250000  -0.3250000   0.3250000), wk =   0.0219780
        k(    9) = (   0.3000000  -0.3000000   0.3000000), wk =   0.0219780
        k(   10) = (   0.2750000  -0.2750000   0.2750000), wk =   0.0219780
        k(   11) = (   0.2500000  -0.2500000   0.2500000), wk =   0.0219780
        k(   12) = (   0.2250000  -0.2250000   0.2250000), wk =   0.0219780
        k(   13) = (   0.2000000  -0.2000000   0.2000000), wk =   0.0219780
        k(   14) = (   0.1750000  -0.1750000   0.1750000), wk =   0.0219780
        k(   15) = (   0.1500000  -0.1500000   0.1500000), wk =   0.0219780
        k(   16) = (   0.1250000  -0.1250000   0.1250000), wk =   0.0219780
        k(   17) = (   0.1000000  -0.1000000   0.1000000), wk =   0.0219780
        k(   18) = (   0.0750000  -0.0750000   0.0750000), wk =   0.0219780
        k(   19) = (   0.0500000  -0.0500000   0.0500000), wk =   0.0219780
        k(   20) = (   0.0250000  -0.0250000   0.0250000), wk =   0.0219780
        k(   21) = (   0.0000000   0.0000000   0.0000000), wk =   0.0219780
        k(   22) = (   0.0333333   0.0000000   0.0000000), wk =   0.0219780
        k(   23) = (   0.0666667   0.0000000   0.0000000), wk =   0.0219780
        k(   24) = (   0.1000000   0.0000000   0.0000000), wk =   0.0219780
        k(   25) = (   0.1333333   0.0000000   0.0000000), wk =   0.0219780
        k(   26) = (   0.1666667   0.0000000   0.0000000), wk =   0.0219780
        k(   27) = (   0.2000000   0.0000000   0.0000000), wk =   0.0219780
        k(   28) = (   0.2333333   0.0000000   0.0000000), wk =   0.0219780
        k(   29) = (   0.2666667   0.0000000   0.0000000), wk =   0.0219780
        k(   30) = (   0.3000000   0.0000000   0.0000000), wk =   0.0219780
        k(   31) = (   0.3333333   0.0000000   0.0000000), wk =   0.0219780
        k(   32) = (   0.3666667   0.0000000   0.0000000), wk =   0.0219780
        k(   33) = (   0.4000000   0.0000000   0.0000000), wk =   0.0219780
        k(   34) = (   0.4333333   0.0000000   0.0000000), wk =   0.0219780
        k(   35) = (   0.4666667   0.0000000   0.0000000), wk =   0.0219780
        k(   36) = (   0.5000000   0.0000000   0.0000000), wk =   0.0219780
        k(   37) = (   0.5333333   0.0000000   0.0000000), wk =   0.0219780
        k(   38) = (   0.5666667   0.0000000   0.0000000), wk =   0.0219780
        k(   39) = (   0.6000000   0.0000000   0.0000000), wk =   0.0219780
        k(   40) = (   0.6333333   0.0000000   0.0000000), wk =   0.0219780
        k(   41) = (   0.6666667   0.0000000   0.0000000), wk =   0.0219780
        k(   42) = (   0.7000000   0.0000000   0.0000000), wk =   0.0219780
        k(   43) = (   0.7333333   0.0000000   0.0000000), wk =   0.0219780
        k(   44) = (   0.7666667   0.0000000   0.0000000), wk =   0.0219780
        k(   45) = (   0.8000000   0.0000000   0.0000000), wk =   0.0219780
        k(   46) = (   0.8333333   0.0000000   0.0000000), wk =   0.0219780
        k(   47) = (   0.8666667   0.0000000   0.0000000), wk =   0.0219780
        k(   48) = (   0.9000000   0.0000000   0.0000000), wk =   0.0219780
        k(   49) = (   0.9333333   0.0000000   0.0000000), wk =   0.0219780
        k(   50) = (   0.9666667   0.0000000   0.0000000), wk =   0.0219780
        k(   51) = (   1.0000000   0.0000000   0.0000000), wk =   0.0219780
        k(   52) = (   1.0000000  -0.0250000   0.0250000), wk =   0.0219780
        k(   53) = (   1.0000000  -0.0500000   0.0500000), wk =   0.0219780
        k(   54) = (   1.0000000  -0.0750000   0.0750000), wk =   0.0219780
        k(   55) = (   1.0000000  -0.1000000   0.1000000), wk =   0.0219780
        k(   56) = (   1.0000000  -0.1250000   0.1250000), wk =   0.0219780
        k(   57) = (   1.0000000  -0.1500000   0.1500000), wk =   0.0219780
        k(   58) = (   1.0000000  -0.1750000   0.1750000), wk =   0.0219780
        k(   59) = (   1.0000000  -0.2000000   0.2000000), wk =   0.0219780
        k(   60) = (   1.0000000  -0.2250000   0.2250000), wk =   0.0219780
        k(   61) = (   1.0000000  -0.2500000   0.2500000), wk =   0.0219780
        k(   62) = (   0.9666667  -0.2416667   0.2416667), wk =   0.0219780
        k(   63) = (   0.9333333  -0.2333333   0.2333333), wk =   0.0219780
        k(   64) = (   0.9000000  -0.2250000   0.2250000), wk =   0.0219780
        k(   65) = (   0.8666667  -0.2166667   0.2166667), wk =   0.0219780
        k(   66) = (   0.8333333  -0.2083333   0.2083333), wk =   0.0219780
        k(   67) = (   0.8000000  -0.2000000   0.2000000), wk =   0.0219780
        k(   68) = (   0.7666667  -0.1916667   0.1916667), wk =   0.0219780
        k(   69) = (   0.7333333  -0.1833333   0.1833333), wk =   0.0219780
        k(   70) = (   0.7000000  -0.1750000   0.1750000), wk =   0.0219780
        k(   71) = (   0.6666667  -0.1666667   0.1666667), wk =   0.0219780
        k(   72) = (   0.6333333  -0.1583333   0.1583333), wk =   0.0219780
        k(   73) = (   0.6000000  -0.1500000   0.1500000), wk =   0.0219780
        k(   74) = (   0.5666667  -0.1416667   0.1416667), wk =   0.0219780
        k(   75) = (   0.5333333  -0.1333333   0.1333333), wk =   0.0219780
        k(   76) = (   0.5000000  -0.1250000   0.1250000), wk =   0.0219780
        k(   77) = (   0.4666667  -0.1166667   0.1166667), wk =   0.0219780
        k(   78) = (   0.4333333  -0.1083333   0.1083333), wk =   0.0219780
        k(   79) = (   0.4000000  -0.1000000   0.1000000), wk =   0.0219780
        k(   80) = (   0.3666667  -0.0916667   0.0916667), wk =   0.0219780
        k(   81) = (   0.3333333  -0.0833333   0.0833333), wk =   0.0219780
        k(   82) = (   0.3000000  -0.0750000   0.0750000), wk =   0.0219780
        k(   83) = (   0.2666667  -0.0666667   0.0666667), wk =   0.0219780
        k(   84) = (   0.2333333  -0.0583333   0.0583333), wk =   0.0219780
        k(   85) = (   0.2000000  -0.0500000   0.0500000), wk =   0.0219780
        k(   86) = (   0.1666667  -0.0416667   0.0416667), wk =   0.0219780
        k(   87) = (   0.1333333  -0.0333333   0.0333333), wk =   0.0219780
        k(   88) = (   0.1000000  -0.0250000   0.0250000), wk =   0.0219780
        k(   89) = (   0.0666667  -0.0166667   0.0166667), wk =   0.0219780
        k(   90) = (   0.0333333  -0.0083333   0.0083333), wk =   0.0219780
        k(   91) = (   0.0000000   0.0000000   0.0000000), wk =   0.0219780

     Dense  grid:    87843 G-vectors     FFT dimensions: (  64,  64,  64)

     Smooth grid:    16889 G-vectors     FFT dimensions: (  36,  36,  36)

     Estimated max dynamical RAM per process >      29.51Mb

     The potential is recalculated from file :
     ./si.save/charge-density.dat

     Starting wfc are    8 randomized atomic wfcs

     Band Structure Calculation
     Davidson diagonalization with overlap

     ethr =  1.25E-10,  avg # of iterations = 16.7

     total cpu time spent up to now is       34.5 secs

     End of band structure calculation

          k = 0.5000-0.5000 0.5000 (  2120 PWs)   bands (ev):

    -3.3382  -0.7075   5.0330   5.0330   7.8234   9.5774   9.5774  13.9793

          k = 0.4750-0.4750 0.4750 (  2120 PWs)   bands (ev):

    -3.3740  -0.6564   5.0375   5.0375   7.8285   9.5826   9.5826  13.9873

          k = 0.4500-0.4500 0.4500 (  2117 PWs)   bands (ev):

    -3.4734  -0.5108   5.0509   5.0509   7.8438   9.5978   9.5978  14.0105

          k = 0.4250-0.4250 0.4250 (  2111 PWs)   bands (ev):

    -3.6189  -0.2885   5.0733   5.0733   7.8691   9.6220   9.6220  14.0466

          k = 0.4000-0.4000 0.4000 (  2117 PWs)   bands (ev):

    -3.7923  -0.0079   5.1045   5.1045   7.9044   9.6531   9.6531  14.0906

          k = 0.3750-0.3750 0.3750 (  2114 PWs)   bands (ev):

    -3.9793   0.3165   5.1446   5.1446   7.9495   9.6882   9.6882  14.1317

          k = 0.3500-0.3500 0.3500 (  2108 PWs)   bands (ev):

    -4.1702   0.6747   5.1935   5.1935   8.0041   9.7231   9.7231  14.1456

          k = 0.3250-0.3250 0.3250 (  2108 PWs)   bands (ev):

    -4.3588   1.0597   5.2509   5.2509   8.0678   9.7527   9.7527  14.0833

          k = 0.3000-0.3000 0.3000 (  2121 PWs)   bands (ev):

    -4.5407   1.4667   5.3165   5.3165   8.1400   9.7703   9.7703  13.8325

          k = 0.2750-0.2750 0.2750 (  2112 PWs)   bands (ev):

    -4.7131   1.8920   5.3901   5.3901   8.2200   9.7690   9.7690  13.5709

          k = 0.2500-0.2500 0.2500 (  2106 PWs)   bands (ev):

    -4.8740   2.3325   5.4709   5.4709   8.3067   9.7422   9.7422  13.1832

          k = 0.2250-0.2250 0.2250 (  2109 PWs)   bands (ev):

    -5.0220   2.7853   5.5582   5.5582   8.3987   9.6858   9.6858  12.7621

          k = 0.2000-0.2000 0.2000 (  2100 PWs)   bands (ev):

    -5.1562   3.2474   5.6507   5.6507   8.4940   9.5998   9.5998  12.3250

          k = 0.1750-0.1750 0.1750 (  2112 PWs)   bands (ev):

    -5.2759   3.7155   5.7468   5.7468   8.5898   9.4885   9.4885  11.8808

          k = 0.1500-0.1500 0.1500 (  2112 PWs)   bands (ev):

    -5.3804   4.1849   5.8443   5.8443   8.6821   9.3600   9.3600  11.4363

          k = 0.1250-0.1250 0.1250 (  2112 PWs)   bands (ev):

    -5.4694   4.6492   5.9401   5.9401   8.7655   9.2244   9.2244  11.0000

          k = 0.1000-0.1000 0.1000 (  2106 PWs)   bands (ev):

    -5.5426   5.0987   6.0302   6.0302   8.8320   9.0925   9.0925  10.5853

          k = 0.0750-0.0750 0.0750 (  2097 PWs)   bands (ev):

    -5.5998   5.5171   6.1096   6.1096   8.8696   8.9750   8.9750  10.2154

          k = 0.0500-0.0500 0.0500 (  2097 PWs)   bands (ev):

    -5.6407   5.8768   6.1726   6.1726   8.8658   8.8819   8.8819   9.9256

          k = 0.0250-0.0250 0.0250 (  2097 PWs)   bands (ev):

    -5.6653   6.1325   6.2134   6.2134   8.8220   8.8220   8.8267   9.7507

          k = 0.0000 0.0000 0.0000 (  2109 PWs)   bands (ev):

    -5.6735   6.2276   6.2276   6.2276   8.8012   8.8012   8.8012   9.6953

          k = 0.0333 0.0000 0.0000 (  2101 PWs)   bands (ev):

    -5.6686   6.1952   6.2066   6.2066   8.7893   8.8282   8.8282   9.7270

          k = 0.0667 0.0000 0.0000 (  2101 PWs)   bands (ev):

    -5.6540   6.1018   6.1461   6.1461   8.7540   8.9066   8.9066   9.8178

          k = 0.1000 0.0000 0.0000 (  2101 PWs)   bands (ev):

    -5.6297   5.9562   6.0529   6.0529   8.6973   9.0298   9.0298   9.9567

          k = 0.1333 0.0000 0.0000 (  2101 PWs)   bands (ev):

    -5.5957   5.7694   5.9349   5.9349   8.6218   9.1895   9.1895  10.1286

          k = 0.1667 0.0000 0.0000 (  2117 PWs)   bands (ev):

    -5.5520   5.5518   5.7998   5.7998   8.5306   9.3781   9.3781  10.3157

          k = 0.2000 0.0000 0.0000 (  2121 PWs)   bands (ev):

    -5.4987   5.3115   5.6538   5.6538   8.4273   9.5893   9.5893  10.4965

          k = 0.2333 0.0000 0.0000 (  2113 PWs)   bands (ev):

    -5.4358   5.0548   5.5017   5.5017   8.3149   9.8182   9.8182  10.6421

          k = 0.2667 0.0000 0.0000 (  2117 PWs)   bands (ev):

    -5.3632   4.7861   5.3469   5.3469   8.1966  10.0611  10.0611  10.7165

          k = 0.3000 0.0000 0.0000 (  2109 PWs)   bands (ev):

    -5.2812   4.5087   5.1922   5.1922   8.0749  10.3152  10.3152  10.6914

          k = 0.3333 0.0000 0.0000 (  2105 PWs)   bands (ev):

    -5.1896   4.2249   5.0393   5.0393   7.9522  10.5691  10.5786  10.5786

          k = 0.3667 0.0000 0.0000 (  2101 PWs)   bands (ev):

    -5.0887   3.9363   4.8898   4.8898   7.8304  10.3776  10.8496  10.8496

          k = 0.4000 0.0000 0.0000 (  2093 PWs)   bands (ev):

    -4.9784   3.6443   4.7448   4.7448   7.7112  10.1466  11.1271  11.1271

          k = 0.4333 0.0000 0.0000 (  2105 PWs)   bands (ev):

    -4.8588   3.3498   4.6050   4.6050   7.5959   9.8968  11.4100  11.4100

          k = 0.4667 0.0000 0.0000 (  2105 PWs)   bands (ev):

    -4.7300   3.0534   4.4712   4.4712   7.4858   9.6406  11.6976  11.6976

          k = 0.5000 0.0000 0.0000 (  2085 PWs)   bands (ev):

    -4.5922   2.7559   4.3439   4.3439   7.3819   9.3856  11.9892  11.9892

          k = 0.5333 0.0000 0.0000 (  2113 PWs)   bands (ev):

    -4.4453   2.4577   4.2235   4.2235   7.2849   9.1363  12.2846  12.2846

          k = 0.5667 0.0000 0.0000 (  2113 PWs)   bands (ev):

    -4.2896   2.1594   4.1104   4.1104   7.1958   8.8958  12.5832  12.5832

          k = 0.6000 0.0000 0.0000 (  2105 PWs)   bands (ev):

    -4.1251   1.8614   4.0048   4.0048   7.1151   8.6661  12.8848  12.8848

          k = 0.6333 0.0000 0.0000 (  2117 PWs)   bands (ev):

    -3.9520   1.5640   3.9069   3.9069   7.0433   8.4484  13.1891  13.1891

          k = 0.6667 0.0000 0.0000 (  2108 PWs)   bands (ev):

    -3.7705   1.2679   3.8171   3.8171   6.9811   8.2438  13.4961  13.4961

          k = 0.7000 0.0000 0.0000 (  2112 PWs)   bands (ev):

    -3.5806   0.9733   3.7354   3.7354   6.9287   8.0527  13.8054  13.8054

          k = 0.7333 0.0000 0.0000 (  2112 PWs)   bands (ev):

    -3.3826   0.6809   3.6620   3.6620   6.8867   7.8755  14.1170  14.1170

          k = 0.7667 0.0000 0.0000 (  2112 PWs)   bands (ev):

    -3.1767   0.3909   3.5970   3.5970   6.8555   7.7125  14.4305  14.4305

          k = 0.8000 0.0000 0.0000 (  2112 PWs)   bands (ev):

    -2.9630   0.1039   3.5405   3.5405   6.8353   7.5637  14.7455  14.7455

          k = 0.8333 0.0000 0.0000 (  2120 PWs)   bands (ev):

    -2.7419  -0.1798   3.4925   3.4925   6.8265   7.4290  15.0611  15.0611

          k = 0.8667 0.0000 0.0000 (  2124 PWs)   bands (ev):

    -2.5134  -0.4596   3.4532   3.4532   6.8294   7.3085  15.3757  15.3757

          k = 0.9000 0.0000 0.0000 (  2128 PWs)   bands (ev):

    -2.2780  -0.7352   3.4226   3.4226   6.8444   7.2020  15.6856  15.6856

          k = 0.9333 0.0000 0.0000 (  2116 PWs)   bands (ev):

    -2.0358  -1.0061   3.4006   3.4006   6.8716   7.1092  15.9815  15.9815

          k = 0.9667 0.0000 0.0000 (  2100 PWs)   bands (ev):

    -1.7872  -1.2720   3.3875   3.3875   6.9115   7.0300  16.2343  16.2343

          k = 1.0000 0.0000 0.0000 (  2100 PWs)   bands (ev):

    -1.5325  -1.5325   3.3831   3.3831   6.9642   6.9642  16.3515  16.3515

          k = 1.0000-0.0250 0.0250 (  2100 PWs)   bands (ev):

    -1.5347  -1.5266   3.3459   3.3875   6.9693   7.0194  16.2896  16.3191

          k = 1.0000-0.0500 0.0500 (  2112 PWs)   bands (ev):

    -1.5415  -1.5090   3.2416   3.4006   6.9845   7.1778  16.1212  16.2260

          k = 1.0000-0.0750 0.0750 (  2127 PWs)   bands (ev):

    -1.5538  -1.4795   3.0876   3.4225   7.0097   7.4228  15.8811  16.0826

          k = 1.0000-0.1000 0.1000 (  2123 PWs)   bands (ev):

    -1.5727  -1.4383   2.9042   3.4530   7.0450   7.7353  15.5990  15.9011

          k = 1.0000-0.1250 0.1250 (  2123 PWs)   bands (ev):

    -1.6002  -1.3853   2.7088   3.4921   7.0901   8.0995  15.2942  15.6927

          k = 1.0000-0.1500 0.1500 (  2127 PWs)   bands (ev):

    -1.6383  -1.3206   2.5153   3.5395   7.1451   8.5031  14.9783  15.4661

          k = 1.0000-0.1750 0.1750 (  2131 PWs)   bands (ev):

    -1.6894  -1.2441   2.3344   3.5952   7.2096   8.9378  14.6580  15.2281

          k = 1.0000-0.2000 0.2000 (  2139 PWs)   bands (ev):

    -1.7558  -1.1560   2.1741   3.6590   7.2835   9.3970  14.3378  14.9079

          k = 1.0000-0.2250 0.2250 (  2141 PWs)   bands (ev):

    -1.8395  -1.0563   2.0403   3.7305   7.3664   9.8760  14.0204  14.5750

          k = 1.0000-0.2500 0.2500 (  2129 PWs)   bands (ev):

    -1.9416  -0.9449   1.9369   3.8095   7.4582  10.3706  13.7078  14.2521

          k = 0.9667-0.2417 0.2417 (  2135 PWs)   bands (ev):

    -1.9456  -0.9464   1.9818   3.7864   7.4324  10.2100  13.7322  14.1267

          k = 0.9333-0.2333 0.2333 (  2129 PWs)   bands (ev):

    -2.0317  -0.8700   2.0553   3.7721   7.4191  10.0627  13.6461  13.9107

          k = 0.9000-0.2250 0.2250 (  2122 PWs)   bands (ev):

    -2.1778  -0.7335   2.1528   3.7669   7.4179   9.9296  13.5133  13.6886

          k = 0.8667-0.2167 0.2167 (  2124 PWs)   bands (ev):

    -2.3580  -0.5595   2.2707   3.7709   7.4285   9.8117  13.3636  13.4660

          k = 0.8333-0.2083 0.2083 (  2125 PWs)   bands (ev):

    -2.5556  -0.3618   2.4057   3.7842   7.4502   9.7099  13.2084  13.2441

          k = 0.8000-0.2000 0.2000 (  2130 PWs)   bands (ev):

    -2.7614  -0.1475   2.5551   3.8068   7.4822   9.6257  13.0235  13.0522

          k = 0.7667-0.1917 0.1917 (  2124 PWs)   bands (ev):

    -2.9697   0.0795   2.7166   3.8388   7.5232   9.5606  12.8045  12.8964

          k = 0.7333-0.1833 0.1833 (  2126 PWs)   bands (ev):

    -3.1770   0.3171   2.8881   3.8801   7.5717   9.5162  12.5872  12.7414

          k = 0.7000-0.1750 0.1750 (  2122 PWs)   bands (ev):

    -3.3811   0.5641   3.0677   3.9308   7.6258   9.4946  12.3719  12.5864

          k = 0.6667-0.1667 0.1667 (  2119 PWs)   bands (ev):

    -3.5803   0.8196   3.2538   3.9908   7.6836   9.4977  12.1588  12.4306

          k = 0.6333-0.1583 0.1583 (  2122 PWs)   bands (ev):

    -3.7733   1.0830   3.4450   4.0600   7.7430   9.5272  11.9483  12.2723

          k = 0.6000-0.1500 0.1500 (  2117 PWs)   bands (ev):

    -3.9594   1.3540   3.6396   4.1383   7.8023   9.5840  11.7410  12.1099

          k = 0.5667-0.1417 0.1417 (  2112 PWs)   bands (ev):

    -4.1376   1.6321   3.8364   4.2256   7.8604   9.6679  11.5378  11.9416

          k = 0.5333-0.1333 0.1333 (  2106 PWs)   bands (ev):

    -4.3075   1.9171   4.0340   4.3217   7.9168   9.7768  11.3404  11.7655

          k = 0.5000-0.1250 0.1250 (  2116 PWs)   bands (ev):

    -4.4686   2.2085   4.2313   4.4263   7.9722   9.9055  11.1523  11.5802

          k = 0.4667-0.1167 0.1167 (  2117 PWs)   bands (ev):

    -4.6206   2.5060   4.4271   4.5391   8.0272  10.0433  10.9812  11.3847

          k = 0.4333-0.1083 0.1083 (  2109 PWs)   bands (ev):

    -4.7631   2.8091   4.6202   4.6597   8.0831  10.1640  10.8482  11.1787

          k = 0.4000-0.1000 0.1000 (  2109 PWs)   bands (ev):

    -4.8958   3.1172   4.7877   4.8095   8.1410  10.2111  10.8026  10.9629

          k = 0.3667-0.0917 0.0917 (  2107 PWs)   bands (ev):

    -5.0185   3.4295   4.9224   4.9937   8.2018  10.1463  10.7386  10.8707

          k = 0.3333-0.0833 0.0833 (  2106 PWs)   bands (ev):

    -5.1311   3.7452   5.0629   5.1717   8.2658  10.0166  10.5082  10.9845

          k = 0.3000-0.0750 0.0750 (  2109 PWs)   bands (ev):

    -5.2334   4.0628   5.2082   5.3421   8.3330   9.8655  10.2746  11.0654

          k = 0.2667-0.0667 0.0667 (  2112 PWs)   bands (ev):

    -5.3252   4.3807   5.3568   5.5035   8.4027   9.7098  10.0410  11.0528

          k = 0.2333-0.0583 0.0583 (  2114 PWs)   bands (ev):

    -5.4065   4.6964   5.5068   5.6543   8.4739   9.5561   9.8114  10.9250

          k = 0.2000-0.0500 0.0500 (  2114 PWs)   bands (ev):

    -5.4771   5.0065   5.6556   5.7926   8.5445   9.4076   9.5902  10.7141

          k = 0.1667-0.0417 0.0417 (  2107 PWs)   bands (ev):

    -5.5370   5.3057   5.7995   5.9162   8.6123   9.2660   9.3825  10.4677

          k = 0.1333-0.0333 0.0333 (  2099 PWs)   bands (ev):

    -5.5861   5.5865   5.9337   6.0228   8.6741   9.1325   9.1945  10.2227

          k = 0.1000-0.0250 0.0250 (  2097 PWs)   bands (ev):

    -5.6243   5.8375   6.0516   6.1097   8.7268   9.0098   9.0337  10.0056

          k = 0.0667-0.0167 0.0167 (  2097 PWs)   bands (ev):

    -5.6516   6.0421   6.1453   6.1742   8.7672   8.9042   8.9087   9.8370

          k = 0.0333-0.0083 0.0083 (  2097 PWs)   bands (ev):

    -5.6680   6.1789   6.2063   6.2141   8.7926   8.8288   8.8290   9.7312

          k = 0.0000 0.0000 0.0000 (  2109 PWs)   bands (ev):

    -5.6735   6.2276   6.2276   6.2276   8.8012   8.8012   8.8012   9.6953

     Writing output data file si.save

     init_run     :      0.61s CPU      0.64s WALL (       1 calls)
     electrons    :     33.46s CPU     34.12s WALL (       1 calls)

     Called by init_run:
     wfcinit      :      0.00s CPU      0.00s WALL (       1 calls)
     potinit      :      0.31s CPU      0.33s WALL (       1 calls)

     Called by electrons:
     c_bands      :     33.46s CPU     33.58s WALL (       1 calls)
     v_of_rho     :      0.28s CPU      0.29s WALL (       1 calls)

     Called by c_bands:
     init_us_2    :      0.06s CPU      0.06s WALL (      91 calls)
     cegterg      :     30.92s CPU     31.01s WALL (     100 calls)

     Called by sum_band:

     Called by *egterg:
     h_psi        :     27.57s CPU     27.67s WALL (    1713 calls)
     g_psi        :      0.28s CPU      0.28s WALL (    1522 calls)
     cdiaghg      :      0.46s CPU      0.46s WALL (    1613 calls)

     Called by h_psi:
     h_psi:pot    :     27.48s CPU     27.57s WALL (    1713 calls)
     h_psi:calbec :      0.60s CPU      0.61s WALL (    1713 calls)
     vloc_psi     :     26.37s CPU     26.46s WALL (    1713 calls)
     add_vuspsi   :      0.50s CPU      0.50s WALL (    1713 calls)

     General routines
     calbec       :      0.60s CPU      0.60s WALL (    1713 calls)
     fft          :      0.07s CPU      0.07s WALL (      11 calls)
     ffts         :      0.01s CPU      0.01s WALL (       1 calls)
     fftw         :     20.27s CPU     20.31s WALL (   18968 calls)
     interpolate  :      0.01s CPU      0.01s WALL (       1 calls)
     davcio       :      0.02s CPU      0.02s WALL (      91 calls)

     Parallel routines
     fft_scatter  :      1.26s CPU      1.27s WALL (   18980 calls)

     PWSCF        :    34.65s CPU        35.35s WALL


   This run was terminated on:  16:20:19  31May2020            

=------------------------------------------------------------------------------=
   JOB DONE.
=------------------------------------------------------------------------------=
