
     Program PWSCF v.6.0 (svn rev. 13079) starts on 31May2020 at 16:10:54 

     This program is part of the open-source Quantum ESPRESSO suite
     for quantum simulation of materials; please cite
         "P. Giannozzi et al., J. Phys.:Condens. Matter 21 395502 (2009);
          URL http://www.quantum-espresso.org", 
     in publications or presentations arising from this work. More details at
     http://www.quantum-espresso.org/quote

     Parallel version (MPI), running on     1 processors
     Waiting for input...
     Reading input from standard input

     Current dimensions of program PWSCF are:
     Max number of different atomic species (ntypx) = 10
     Max number of k-points (npk) =  40000
     Max angular momentum in pseudopotentials (lmaxx) =  3

     Subspace diagonalization in iterative solution of the eigenvalue problem:
     a serial algorithm will be used

     Message from routine setup:
     no reason to have ecutrho>4*ecutwfc

     G-vector sticks info
     --------------------
     sticks:   dense  smooth     PW     G-vecs:    dense   smooth      PW
     Sum        2587     859    253                87843    16889    2741



     bravais-lattice index     =            2
     lattice parameter (alat)  =      10.2625  a.u.
     unit-cell volume          =     270.2088 (a.u.)^3
     number of atoms/cell      =            2
     number of atomic types    =            1
     number of electrons       =         8.00
     number of Kohn-Sham states=            8
     kinetic-energy cutoff     =      60.0000  Ry
     charge density cutoff     =     720.0000  Ry
     convergence threshold     =      1.0E-08
     mixing beta               =       0.7000
     number of iterations used =            8  plain     mixing
     Exchange-correlation      =  SLA  PW   PBE  PBE ( 1  4  3  4 0 0)

     celldm(1)=  10.262500  celldm(2)=   0.000000  celldm(3)=   0.000000
     celldm(4)=   0.000000  celldm(5)=   0.000000  celldm(6)=   0.000000

     crystal axes: (cart. coord. in units of alat)
               a(1) = (  -0.500000   0.000000   0.500000 )  
               a(2) = (   0.000000   0.500000   0.500000 )  
               a(3) = (  -0.500000   0.500000   0.000000 )  

     reciprocal axes: (cart. coord. in units 2 pi/alat)
               b(1) = ( -1.000000 -1.000000  1.000000 )  
               b(2) = (  1.000000  1.000000  1.000000 )  
               b(3) = ( -1.000000  1.000000 -1.000000 )  


     PseudoPot. # 1 for Si read from file:
     ./Si.pbe-rrkj.UPF
     MD5 check sum: 8af8e7039d270e0118f3b3651cf51d3d
     Pseudo is Norm-conserving, Zval =  4.0
     Generated by new atomic code, or converted to UPF format
     Using radial grid of  883 points,  3 beta functions with: 
                l(1) =   0
                l(2) =   0
                l(3) =   1

     atomic species   valence    mass     pseudopotential
        Si             4.00    28.08550     Si( 1.00)

     48 Sym. Ops., with inversion, found (24 have fractional translation)



   Cartesian axes

     site n.     atom                  positions (alat units)
         1           Si  tau(   1) = (   0.0000000   0.0000000   0.0000000  )
         2           Si  tau(   2) = (   0.2500000   0.2500000   0.2500000  )

     number of k points=    10  gaussian smearing, width (Ry)=  0.0100
                       cart. coord. in units 2pi/alat
        k(    1) = (  -0.1250000   0.1250000   0.1250000), wk =   0.0625000
        k(    2) = (  -0.3750000   0.3750000  -0.1250000), wk =   0.1875000
        k(    3) = (   0.3750000  -0.3750000   0.6250000), wk =   0.1875000
        k(    4) = (   0.1250000  -0.1250000   0.3750000), wk =   0.1875000
        k(    5) = (  -0.1250000   0.6250000   0.1250000), wk =   0.1875000
        k(    6) = (   0.6250000  -0.1250000   0.8750000), wk =   0.3750000
        k(    7) = (   0.3750000   0.1250000   0.6250000), wk =   0.3750000
        k(    8) = (  -0.1250000  -0.8750000   0.1250000), wk =   0.1875000
        k(    9) = (  -0.3750000   0.3750000   0.3750000), wk =   0.0625000
        k(   10) = (   0.3750000  -0.3750000   1.1250000), wk =   0.1875000

     Dense  grid:    87843 G-vectors     FFT dimensions: (  64,  64,  64)

     Smooth grid:    16889 G-vectors     FFT dimensions: (  36,  36,  36)

     Estimated max dynamical RAM per process >      56.88Mb

     Initial potential from superposition of free atoms

     starting charge    7.99889, renormalised to    8.00000
     Starting wfc are    8 randomized atomic wfcs

     total cpu time spent up to now is        1.0 secs

     per-process dynamical memory:    48.2 Mb

     Self-consistent Calculation

     iteration #  1     ecut=    60.00 Ry     beta=0.70
     Davidson diagonalization with overlap
     ethr =  1.00E-02,  avg # of iterations =  4.1

     Threshold (ethr) on eigenvalues was too large:
     Diagonalizing with lowered threshold

     Davidson diagonalization with overlap
     ethr =  7.47E-04,  avg # of iterations =  1.0

     total cpu time spent up to now is        3.3 secs

     total energy              =     -15.73849063 Ry
     Harris-Foulkes estimate   =     -15.75253452 Ry
     estimated scf accuracy    <       0.05903808 Ry

     iteration #  2     ecut=    60.00 Ry     beta=0.70
     Davidson diagonalization with overlap
     ethr =  7.38E-04,  avg # of iterations =  1.0

     total cpu time spent up to now is        4.4 secs

     total energy              =     -15.74108669 Ry
     Harris-Foulkes estimate   =     -15.74100747 Ry
     estimated scf accuracy    <       0.00232808 Ry

     iteration #  3     ecut=    60.00 Ry     beta=0.70
     Davidson diagonalization with overlap
     ethr =  2.91E-05,  avg # of iterations =  2.4

     total cpu time spent up to now is        5.5 secs

     total energy              =     -15.74121398 Ry
     Harris-Foulkes estimate   =     -15.74120407 Ry
     estimated scf accuracy    <       0.00004533 Ry

     iteration #  4     ecut=    60.00 Ry     beta=0.70
     Davidson diagonalization with overlap
     ethr =  5.67E-07,  avg # of iterations =  3.0

     total cpu time spent up to now is        6.8 secs

     total energy              =     -15.74122908 Ry
     Harris-Foulkes estimate   =     -15.74122929 Ry
     estimated scf accuracy    <       0.00000139 Ry

     iteration #  5     ecut=    60.00 Ry     beta=0.70
     Davidson diagonalization with overlap
     ethr =  1.74E-08,  avg # of iterations =  2.0

     total cpu time spent up to now is        8.0 secs

     total energy              =     -15.74122933 Ry
     Harris-Foulkes estimate   =     -15.74122941 Ry
     estimated scf accuracy    <       0.00000017 Ry

     iteration #  6     ecut=    60.00 Ry     beta=0.70
     Davidson diagonalization with overlap
     ethr =  2.18E-09,  avg # of iterations =  1.5

     total cpu time spent up to now is        9.1 secs

     End of self-consistent calculation

          k =-0.1250 0.1250 0.1250 (  2112 PWs)   bands (ev):

    -5.4693   4.6494   5.9402   5.9402   8.7656   9.2245   9.2245  11.0001

          k =-0.3750 0.3750-0.1250 (  2117 PWs)   bands (ev):

    -4.4233   1.6393   3.9309   5.4567   8.9858   9.9149  10.0958  12.5513

          k = 0.3750-0.3750 0.6250 (  2115 PWs)   bands (ev):

    -3.2526  -0.4832   3.9649   4.6707   8.4560   9.7631  10.3370  13.6111

          k = 0.1250-0.1250 0.3750 (  2106 PWs)   bands (ev):

    -4.9321   3.0373   4.9141   4.9972   8.3944   9.9677  10.7019  10.9937

          k =-0.1250 0.6250 0.1250 (  2114 PWs)   bands (ev):

    -3.8822   1.3352   3.5690   4.0263   7.6018   9.1441  12.2411  12.5023

          k = 0.6250-0.1250 0.8750 (  2132 PWs)   bands (ev):

    -2.2049  -0.6500   2.1799   3.2771   8.6366  10.5204  11.5256  13.6825

          k = 0.3750 0.1250 0.6250 (  2117 PWs)   bands (ev):

    -3.4555   0.4310   2.9233   4.3061   9.1256   9.8016  11.2660  12.1732

          k =-0.1250-0.8750 0.1250 (  2127 PWs)   bands (ev):

    -2.3834  -0.5468   2.8024   3.5525   7.1485   8.2165  14.5017  14.5960

          k =-0.3750 0.3750 0.3750 (  2114 PWs)   bands (ev):

    -3.9791   0.3166   5.1448   5.1448   7.9496   9.6882   9.6883  14.1316

          k = 0.3750-0.3750 1.1250 (  2125 PWs)   bands (ev):

    -2.7492  -0.3671   2.2512   4.3473   8.0989  11.7084  11.7167  13.2037

     the Fermi energy is     6.5358 ev

!    total energy              =     -15.74122935 Ry
     Harris-Foulkes estimate   =     -15.74122935 Ry
     estimated scf accuracy    <          2.5E-09 Ry

     The total energy is the sum of the following terms:

     one-electron contribution =       4.77322813 Ry
     hartree contribution      =       1.09501803 Ry
     xc contribution           =      -4.81263873 Ry
     ewald contribution        =     -16.79683678 Ry
     smearing contrib. (-TS)   =      -0.00000000 Ry

     convergence has been achieved in   6 iterations

     Writing output data file si.save

     init_run     :      0.89s CPU      0.91s WALL (       1 calls)
     electrons    :      8.01s CPU      8.11s WALL (       1 calls)

     Called by init_run:
     wfcinit      :      0.27s CPU      0.27s WALL (       1 calls)
     potinit      :      0.33s CPU      0.34s WALL (       1 calls)

     Called by electrons:
     c_bands      :      4.57s CPU      4.60s WALL (       7 calls)
     sum_band     :      1.62s CPU      1.63s WALL (       7 calls)
     v_of_rho     :      1.90s CPU      1.98s WALL (       7 calls)
     mix_rho      :      0.09s CPU      0.09s WALL (       7 calls)

     Called by c_bands:
     init_us_2    :      0.10s CPU      0.11s WALL (     150 calls)
     cegterg      :      4.49s CPU      4.52s WALL (      70 calls)

     Called by sum_band:

     Called by *egterg:
     h_psi        :      4.23s CPU      4.25s WALL (     230 calls)
     g_psi        :      0.03s CPU      0.03s WALL (     150 calls)
     cdiaghg      :      0.04s CPU      0.04s WALL (     210 calls)

     Called by h_psi:
     h_psi:pot    :      4.21s CPU      4.24s WALL (     230 calls)
     h_psi:calbec :      0.09s CPU      0.09s WALL (     230 calls)
     vloc_psi     :      4.05s CPU      4.07s WALL (     230 calls)
     add_vuspsi   :      0.08s CPU      0.08s WALL (     230 calls)

     General routines
     calbec       :      0.09s CPU      0.09s WALL (     230 calls)
     fft          :      0.58s CPU      0.59s WALL (      97 calls)
     ffts         :      0.02s CPU      0.02s WALL (      14 calls)
     fftw         :      3.70s CPU      3.72s WALL (    3462 calls)
     interpolate  :      0.12s CPU      0.12s WALL (      14 calls)
     davcio       :      0.00s CPU      0.00s WALL (      10 calls)

     Parallel routines
     fft_scatter  :      0.46s CPU      0.47s WALL (    3573 calls)

     PWSCF        :     9.05s CPU         9.18s WALL


   This run was terminated on:  16:11: 4  31May2020            

=------------------------------------------------------------------------------=
   JOB DONE.
=------------------------------------------------------------------------------=
