
     Program PWSCF v.6.0 (svn rev. 13079) starts on 30May2020 at 18:54:41 

     This program is part of the open-source Quantum ESPRESSO suite
     for quantum simulation of materials; please cite
         "P. Giannozzi et al., J. Phys.:Condens. Matter 21 395502 (2009);
          URL http://www.quantum-espresso.org", 
     in publications or presentations arising from this work. More details at
     http://www.quantum-espresso.org/quote

     Parallel version (MPI), running on     1 processors
     Waiting for input...
     Reading input from standard input

     Current dimensions of program PWSCF are:
     Max number of different atomic species (ntypx) = 10
     Max number of k-points (npk) =  40000
     Max angular momentum in pseudopotentials (lmaxx) =  3

     Subspace diagonalization in iterative solution of the eigenvalue problem:
     a serial algorithm will be used

     Message from routine setup:
     no reason to have ecutrho>4*ecutwfc

     G-vector sticks info
     --------------------
     sticks:   dense  smooth     PW     G-vecs:    dense   smooth      PW
     Sum        1735     583    187                47855     9257    1639



     bravais-lattice index     =            2
     lattice parameter (alat)  =      10.2625  a.u.
     unit-cell volume          =     270.2088 (a.u.)^3
     number of atoms/cell      =            2
     number of atomic types    =            1
     number of electrons       =         8.00
     number of Kohn-Sham states=            4
     kinetic-energy cutoff     =      40.0000  Ry
     charge density cutoff     =     480.0000  Ry
     convergence threshold     =      1.0E-08
     mixing beta               =       0.7000
     number of iterations used =            8  plain     mixing
     Exchange-correlation      =  SLA  PW   PBE  PBE ( 1  4  3  4 0 0)
     nstep                     =           50


     celldm(1)=  10.262500  celldm(2)=   0.000000  celldm(3)=   0.000000
     celldm(4)=   0.000000  celldm(5)=   0.000000  celldm(6)=   0.000000

     crystal axes: (cart. coord. in units of alat)
               a(1) = (  -0.500000   0.000000   0.500000 )  
               a(2) = (   0.000000   0.500000   0.500000 )  
               a(3) = (  -0.500000   0.500000   0.000000 )  

     reciprocal axes: (cart. coord. in units 2 pi/alat)
               b(1) = ( -1.000000 -1.000000  1.000000 )  
               b(2) = (  1.000000  1.000000  1.000000 )  
               b(3) = ( -1.000000  1.000000 -1.000000 )  


     PseudoPot. # 1 for Si read from file:
     ./Si.pbe-rrkj.UPF
     MD5 check sum: 8af8e7039d270e0118f3b3651cf51d3d
     Pseudo is Norm-conserving, Zval =  4.0
     Generated by new atomic code, or converted to UPF format
     Using radial grid of  883 points,  3 beta functions with: 
                l(1) =   0
                l(2) =   0
                l(3) =   1

     atomic species   valence    mass     pseudopotential
        Si             4.00    28.08550     Si( 1.00)

     24 Sym. Ops. (no inversion) found
          (note: 24 additional sym.ops. were found but ignored
           their fractional translations are incommensurate with FFT grid)


   Cartesian axes

     site n.     atom                  positions (alat units)
         1           Si  tau(   1) = (   0.0000000   0.0000000   0.0000000  )
         2           Si  tau(   2) = (   0.2500000   0.2500000   0.2500000  )

     number of k points=    10
                       cart. coord. in units 2pi/alat
        k(    1) = (  -0.1250000   0.1250000   0.1250000), wk =   0.0625000
        k(    2) = (  -0.3750000   0.3750000  -0.1250000), wk =   0.1875000
        k(    3) = (   0.3750000  -0.3750000   0.6250000), wk =   0.1875000
        k(    4) = (   0.1250000  -0.1250000   0.3750000), wk =   0.1875000
        k(    5) = (  -0.1250000   0.6250000   0.1250000), wk =   0.1875000
        k(    6) = (   0.6250000  -0.1250000   0.8750000), wk =   0.3750000
        k(    7) = (   0.3750000   0.1250000   0.6250000), wk =   0.3750000
        k(    8) = (  -0.1250000  -0.8750000   0.1250000), wk =   0.1875000
        k(    9) = (  -0.3750000   0.3750000   0.3750000), wk =   0.0625000
        k(   10) = (   0.3750000  -0.3750000   1.1250000), wk =   0.1875000

     Dense  grid:    47855 G-vectors     FFT dimensions: (  54,  54,  54)

     Smooth grid:     9257 G-vectors     FFT dimensions: (  30,  30,  30)

     Estimated max dynamical RAM per process >      30.93Mb

     Initial potential from superposition of free atoms

     starting charge    7.99889, renormalised to    8.00000
     Starting wfc are    8 randomized atomic wfcs

     total cpu time spent up to now is        2.9 secs

     per-process dynamical memory:    30.1 Mb

     Self-consistent Calculation

     iteration #  1     ecut=    40.00 Ry     beta=0.70
     Davidson diagonalization with overlap
     ethr =  1.00E-02,  avg # of iterations =  2.0

     Threshold (ethr) on eigenvalues was too large:
     Diagonalizing with lowered threshold

     Davidson diagonalization with overlap
     ethr =  7.22E-04,  avg # of iterations =  1.3

     total cpu time spent up to now is        3.7 secs

     total energy              =     -15.73863188 Ry
     Harris-Foulkes estimate   =     -15.75222788 Ry
     estimated scf accuracy    <       0.05771763 Ry

     iteration #  2     ecut=    40.00 Ry     beta=0.70
     Davidson diagonalization with overlap
     ethr =  7.21E-04,  avg # of iterations =  1.0

     total cpu time spent up to now is        4.2 secs

     total energy              =     -15.74075641 Ry
     Harris-Foulkes estimate   =     -15.74076947 Ry
     estimated scf accuracy    <       0.00278114 Ry

     iteration #  3     ecut=    40.00 Ry     beta=0.70
     Davidson diagonalization with overlap
     ethr =  3.48E-05,  avg # of iterations =  2.3

     total cpu time spent up to now is        4.7 secs

     total energy              =     -15.74118108 Ry
     Harris-Foulkes estimate   =     -15.74120453 Ry
     estimated scf accuracy    <       0.00006988 Ry

     iteration #  4     ecut=    40.00 Ry     beta=0.70
     Davidson diagonalization with overlap
     ethr =  8.74E-07,  avg # of iterations =  2.7

     total cpu time spent up to now is        5.3 secs

     total energy              =     -15.74121138 Ry
     Harris-Foulkes estimate   =     -15.74121239 Ry
     estimated scf accuracy    <       0.00000386 Ry

     iteration #  5     ecut=    40.00 Ry     beta=0.70
     Davidson diagonalization with overlap
     ethr =  4.82E-08,  avg # of iterations =  2.2

     total cpu time spent up to now is        5.9 secs

     total energy              =     -15.74121229 Ry
     Harris-Foulkes estimate   =     -15.74121236 Ry
     estimated scf accuracy    <       0.00000017 Ry

     iteration #  6     ecut=    40.00 Ry     beta=0.70
     Davidson diagonalization with overlap
     ethr =  2.15E-09,  avg # of iterations =  2.7

     total cpu time spent up to now is        6.4 secs

     End of self-consistent calculation

          k =-0.1250 0.1250 0.1250 (  1173 PWs)   bands (ev):

    -5.4695   4.6491   5.9400   5.9400

          k =-0.3750 0.3750-0.1250 (  1151 PWs)   bands (ev):

    -4.4236   1.6391   3.9307   5.4564

          k = 0.3750-0.3750 0.6250 (  1160 PWs)   bands (ev):

    -3.2528  -0.4834   3.9647   4.6705

          k = 0.1250-0.1250 0.3750 (  1160 PWs)   bands (ev):

    -4.9323   3.0370   4.9138   4.9970

          k =-0.1250 0.6250 0.1250 (  1157 PWs)   bands (ev):

    -3.8825   1.3349   3.5688   4.0261

          k = 0.6250-0.1250 0.8750 (  1157 PWs)   bands (ev):

    -2.2051  -0.6503   2.1797   3.2769

          k = 0.3750 0.1250 0.6250 (  1150 PWs)   bands (ev):

    -3.4557   0.4308   2.9231   4.3059

          k =-0.1250-0.8750 0.1250 (  1150 PWs)   bands (ev):

    -2.3836  -0.5471   2.8022   3.5522

          k =-0.3750 0.3750 0.3750 (  1155 PWs)   bands (ev):

    -3.9794   0.3164   5.1445   5.1445

          k = 0.3750-0.3750 1.1250 (  1150 PWs)   bands (ev):

    -2.7494  -0.3674   2.2510   4.3470

     highest occupied level (ev):     5.9400

!    total energy              =     -15.74121234 Ry
     Harris-Foulkes estimate   =     -15.74121235 Ry
     estimated scf accuracy    <          6.5E-09 Ry

     The total energy is the sum of the following terms:

     one-electron contribution =       4.77320464 Ry
     hartree contribution      =       1.09507531 Ry
     xc contribution           =      -4.81265552 Ry
     ewald contribution        =     -16.79683678 Ry

     convergence has been achieved in   6 iterations

     Forces acting on atoms (Ry/au):

     atom    1 type  1   force =     0.00000000    0.00000000    0.00000000
     atom    2 type  1   force =     0.00000000    0.00000000    0.00000000

     Total force =     0.000000     Total SCF correction =     0.000000


     entering subroutine stress ...

          total   stress  (Ry/bohr**3)                   (kbar)     P=   22.39
   0.00015223   0.00000000   0.00000000         22.39      0.00      0.00
   0.00000000   0.00015223   0.00000000          0.00     22.39      0.00
   0.00000000   0.00000000   0.00015223          0.00      0.00     22.39


     BFGS Geometry Optimization

     number of scf cycles    =   1
     number of bfgs steps    =   0

     enthalpy new            =     -15.7412123443 Ry

     new trust radius        =       0.0125118399 bohr
     new conv_thr            =       0.0000000100 Ry

     new unit-cell volume =    273.30562 a.u.^3 (    40.49971 Ang^3 )

CELL_PARAMETERS (alat= 10.26250000)
  -0.501902880  -0.000000000   0.501902880
   0.000000000   0.501902880   0.501902880
  -0.501902880   0.501902880   0.000000000

ATOMIC_POSITIONS (alat)
Si       0.000000000   0.000000000   0.000000000
Si       0.250951440   0.250951440   0.250951440



     Writing output data file si.save
     NEW-OLD atomic charge density approx. for the potential
     extrapolated charge    8.09063, renormalised to    8.00000

     total cpu time spent up to now is       13.4 secs

     per-process dynamical memory:    32.7 Mb

     Self-consistent Calculation

     iteration #  1     ecut=    40.00 Ry     beta=0.70
     Davidson diagonalization with overlap
     ethr =  1.00E-06,  avg # of iterations =  3.5

     total cpu time spent up to now is       14.1 secs

     total energy              =     -15.74148545 Ry
     Harris-Foulkes estimate   =     -15.78733334 Ry
     estimated scf accuracy    <       0.00004111 Ry

     iteration #  2     ecut=    40.00 Ry     beta=0.70
     Davidson diagonalization with overlap
     ethr =  5.14E-07,  avg # of iterations =  3.4

     total cpu time spent up to now is       14.7 secs

     total energy              =     -15.74157197 Ry
     Harris-Foulkes estimate   =     -15.74158222 Ry
     estimated scf accuracy    <       0.00003776 Ry

     iteration #  3     ecut=    40.00 Ry     beta=0.70
     Davidson diagonalization with overlap
     ethr =  4.72E-07,  avg # of iterations =  1.0

     total cpu time spent up to now is       15.2 secs

     total energy              =     -15.74156768 Ry
     Harris-Foulkes estimate   =     -15.74157279 Ry
     estimated scf accuracy    <       0.00001133 Ry

     iteration #  4     ecut=    40.00 Ry     beta=0.70
     Davidson diagonalization with overlap
     ethr =  1.42E-07,  avg # of iterations =  2.0

     total cpu time spent up to now is       15.7 secs

     total energy              =     -15.74156905 Ry
     Harris-Foulkes estimate   =     -15.74156947 Ry
     estimated scf accuracy    <       0.00000089 Ry

     iteration #  5     ecut=    40.00 Ry     beta=0.70
     Davidson diagonalization with overlap
     ethr =  1.12E-08,  avg # of iterations =  2.0

     total cpu time spent up to now is       16.3 secs

     total energy              =     -15.74156919 Ry
     Harris-Foulkes estimate   =     -15.74156921 Ry
     estimated scf accuracy    <       0.00000006 Ry

     iteration #  6     ecut=    40.00 Ry     beta=0.70
     Davidson diagonalization with overlap
     ethr =  7.18E-10,  avg # of iterations =  1.2

     total cpu time spent up to now is       16.8 secs

     End of self-consistent calculation

          k =-0.1245 0.1245 0.1245 (  1173 PWs)   bands (ev):

    -5.5126   4.5346   5.8251   5.8251

          k =-0.3736 0.3736-0.1245 (  1151 PWs)   bands (ev):

    -4.4774   1.5433   3.8348   5.3443

          k = 0.3736-0.3736 0.6226 (  1160 PWs)   bands (ev):

    -3.3223  -0.5546   3.8634   4.5675

          k = 0.1245-0.1245 0.3736 (  1160 PWs)   bands (ev):

    -4.9807   2.9277   4.8107   4.8869

          k =-0.1245 0.6226 0.1245 (  1157 PWs)   bands (ev):

    -3.9414   1.2288   3.4792   3.9316

          k = 0.6226-0.1245 0.8717 (  1157 PWs)   bands (ev):

    -2.2841  -0.7400   2.1094   3.1937

          k = 0.3736 0.1245 0.6226 (  1150 PWs)   bands (ev):

    -3.5203   0.3399   2.8380   4.2088

          k =-0.1245-0.8717 0.1245 (  1150 PWs)   bands (ev):

    -2.4579  -0.6394   2.7240   3.4620

          k =-0.3736 0.3736 0.3736 (  1155 PWs)   bands (ev):

    -4.0389   0.2379   5.0357   5.0357

          k = 0.3736-0.3736 1.1207 (  1150 PWs)   bands (ev):

    -2.8236  -0.4507   2.1755   4.2480

     highest occupied level (ev):     5.8251

!    total energy              =     -15.74156919 Ry
     Harris-Foulkes estimate   =     -15.74156919 Ry
     estimated scf accuracy    <          4.7E-09 Ry

     The total energy is the sum of the following terms:

     one-electron contribution =       4.68732905 Ry
     hartree contribution      =       1.10485748 Ry
     xc contribution           =      -4.80060131 Ry
     ewald contribution        =     -16.73315440 Ry

     convergence has been achieved in   6 iterations

     Forces acting on atoms (Ry/au):

     atom    1 type  1   force =     0.00000000    0.00000000    0.00000000
     atom    2 type  1   force =     0.00000000    0.00000000    0.00000000

     Total force =     0.000000     Total SCF correction =     0.000000


     entering subroutine stress ...

          total   stress  (Ry/bohr**3)                   (kbar)     P=   11.68
   0.00007937   0.00000000   0.00000000         11.68      0.00      0.00
   0.00000000   0.00007937   0.00000000          0.00     11.68      0.00
   0.00000000   0.00000000   0.00007937          0.00      0.00     11.68


     number of scf cycles    =   2
     number of bfgs steps    =   1

     enthalpy old            =     -15.7412123443 Ry
     enthalpy new            =     -15.7415691885 Ry

     CASE: enthalpy_new < enthalpy_old

     new trust radius        =       0.0137891884 bohr
     new conv_thr            =            1.0E-10 Ry

     new unit-cell volume =    276.73934 a.u.^3 (    41.00854 Ang^3 )

CELL_PARAMETERS (alat= 10.26250000)
  -0.503996048  -0.000000000   0.503996048
   0.000000000   0.503996048   0.503996048
  -0.503996048   0.503996048   0.000000000

ATOMIC_POSITIONS (alat)
Si       0.000000000   0.000000000   0.000000000
Si       0.251998024   0.251998024   0.251998024



     Writing output data file si.save
     NEW-OLD atomic charge density approx. for the potential
     extrapolated charge    8.09925, renormalised to    8.00000

     total cpu time spent up to now is       23.8 secs

     per-process dynamical memory:    31.5 Mb

     Self-consistent Calculation

     iteration #  1     ecut=    40.00 Ry     beta=0.70
     Davidson diagonalization with overlap
     ethr =  1.00E-06,  avg # of iterations =  3.5

     total cpu time spent up to now is       24.4 secs

     total energy              =     -15.74160727 Ry
     Harris-Foulkes estimate   =     -15.79134415 Ry
     estimated scf accuracy    <       0.00005032 Ry

     iteration #  2     ecut=    40.00 Ry     beta=0.70
     Davidson diagonalization with overlap
     ethr =  6.29E-07,  avg # of iterations =  3.4

     total cpu time spent up to now is       25.1 secs

     total energy              =     -15.74171283 Ry
     Harris-Foulkes estimate   =     -15.74172529 Ry
     estimated scf accuracy    <       0.00004590 Ry

     iteration #  3     ecut=    40.00 Ry     beta=0.70
     Davidson diagonalization with overlap
     ethr =  5.74E-07,  avg # of iterations =  1.0

     total cpu time spent up to now is       25.5 secs

     total energy              =     -15.74170763 Ry
     Harris-Foulkes estimate   =     -15.74171383 Ry
     estimated scf accuracy    <       0.00001374 Ry

     iteration #  4     ecut=    40.00 Ry     beta=0.70
     Davidson diagonalization with overlap
     ethr =  1.72E-07,  avg # of iterations =  2.0

     total cpu time spent up to now is       26.1 secs

     total energy              =     -15.74170928 Ry
     Harris-Foulkes estimate   =     -15.74170978 Ry
     estimated scf accuracy    <       0.00000105 Ry

     iteration #  5     ecut=    40.00 Ry     beta=0.70
     Davidson diagonalization with overlap
     ethr =  1.31E-08,  avg # of iterations =  2.0

     total cpu time spent up to now is       26.7 secs

     total energy              =     -15.74170945 Ry
     Harris-Foulkes estimate   =     -15.74170947 Ry
     estimated scf accuracy    <       0.00000007 Ry

     iteration #  6     ecut=    40.00 Ry     beta=0.70
     Davidson diagonalization with overlap
     ethr =  9.15E-10,  avg # of iterations =  1.1

     total cpu time spent up to now is       27.1 secs

     total energy              =     -15.74170945 Ry
     Harris-Foulkes estimate   =     -15.74170945 Ry
     estimated scf accuracy    <          5.5E-09 Ry

     iteration #  7     ecut=    40.00 Ry     beta=0.70
     Davidson diagonalization with overlap
     ethr =  6.87E-11,  avg # of iterations =  2.3

     total cpu time spent up to now is       27.7 secs

     End of self-consistent calculation

          k =-0.1240 0.1240 0.1240 (  1173 PWs)   bands (ev):

    -5.5590   4.4102   5.7007   5.7007

          k =-0.3720 0.3720-0.1240 (  1151 PWs)   bands (ev):

    -4.5355   1.4392   3.7312   5.2231

          k = 0.3720-0.3720 0.6200 (  1160 PWs)   bands (ev):

    -3.3975  -0.6319   3.7539   4.4562

          k = 0.1240-0.1240 0.3720 (  1160 PWs)   bands (ev):

    -5.0329   2.8088   4.6991   4.7679

          k =-0.1240 0.6200 0.1240 (  1157 PWs)   bands (ev):

    -4.0051   1.1137   3.3824   3.8293

          k = 0.6200-0.1240 0.8681 (  1157 PWs)   bands (ev):

    -2.3696  -0.8374   2.0335   3.1038

          k = 0.3720 0.1240 0.6200 (  1150 PWs)   bands (ev):

    -3.5901   0.2412   2.7461   4.1038

          k =-0.1240-0.8681 0.1240 (  1150 PWs)   bands (ev):

    -2.5384  -0.7395   2.6395   3.3645

          k =-0.3720 0.3720 0.3720 (  1155 PWs)   bands (ev):

    -4.1032   0.1526   4.9179   4.9179

          k = 0.3720-0.3720 1.1161 (  1150 PWs)   bands (ev):

    -2.9039  -0.5413   2.0940   4.1409

     highest occupied level (ev):     5.7007

!    total energy              =     -15.74170945 Ry
     Harris-Foulkes estimate   =     -15.74170945 Ry
     estimated scf accuracy    <          1.4E-11 Ry

     The total energy is the sum of the following terms:

     one-electron contribution =       4.59381170 Ry
     hartree contribution      =       1.11561207 Ry
     xc contribution           =      -4.78747401 Ry
     ewald contribution        =     -16.66365920 Ry

     convergence has been achieved in   7 iterations

     Forces acting on atoms (Ry/au):

     atom    1 type  1   force =    -0.00000000   -0.00000000    0.00000000
     atom    2 type  1   force =     0.00000000    0.00000000   -0.00000000

     Total force =     0.000000     Total SCF correction =     0.000000


     entering subroutine stress ...

          total   stress  (Ry/bohr**3)                   (kbar)     P=    0.49
   0.00000333  -0.00000000   0.00000000          0.49     -0.00      0.00
  -0.00000000   0.00000333  -0.00000000         -0.00      0.49     -0.00
   0.00000000  -0.00000000   0.00000333          0.00     -0.00      0.49


     number of scf cycles    =   3
     number of bfgs steps    =   2

     enthalpy old            =     -15.7415691885 Ry
     enthalpy new            =     -15.7417094496 Ry

     CASE: enthalpy_new < enthalpy_old

     new trust radius        =       0.0006100522 bohr
     new conv_thr            =            1.0E-10 Ry

     new unit-cell volume =    276.89159 a.u.^3 (    41.03110 Ang^3 )

CELL_PARAMETERS (alat= 10.26250000)
  -0.504088460  -0.000000000   0.504088460
   0.000000000   0.504088460   0.504088460
  -0.504088460   0.504088460  -0.000000000

ATOMIC_POSITIONS (alat)
Si      -0.000000000  -0.000000000   0.000000000
Si       0.252044230   0.252044230   0.252044230



     Writing output data file si.save
     NEW-OLD atomic charge density approx. for the potential
     extrapolated charge    8.00440, renormalised to    8.00000

     total cpu time spent up to now is       34.6 secs

     per-process dynamical memory:    31.5 Mb

     Self-consistent Calculation

     iteration #  1     ecut=    40.00 Ry     beta=0.70
     Davidson diagonalization with overlap
     ethr =  1.00E-06,  avg # of iterations =  1.0

     Threshold (ethr) on eigenvalues was too large:
     Diagonalizing with lowered threshold

     Davidson diagonalization with overlap
     ethr =  1.29E-09,  avg # of iterations =  3.0

     total cpu time spent up to now is       35.5 secs

     total energy              =     -15.74170950 Ry
     Harris-Foulkes estimate   =     -15.74390602 Ry
     estimated scf accuracy    <       0.00000010 Ry

     iteration #  2     ecut=    40.00 Ry     beta=0.70
     Davidson diagonalization with overlap
     ethr =  1.30E-09,  avg # of iterations =  3.4

     total cpu time spent up to now is       36.2 secs

     total energy              =     -15.74170971 Ry
     Harris-Foulkes estimate   =     -15.74170974 Ry
     estimated scf accuracy    <       0.00000009 Ry

     iteration #  3     ecut=    40.00 Ry     beta=0.70
     Davidson diagonalization with overlap
     ethr =  1.13E-09,  avg # of iterations =  1.0

     total cpu time spent up to now is       36.6 secs

     total energy              =     -15.74170970 Ry
     Harris-Foulkes estimate   =     -15.74170972 Ry
     estimated scf accuracy    <       0.00000003 Ry

     iteration #  4     ecut=    40.00 Ry     beta=0.70
     Davidson diagonalization with overlap
     ethr =  3.32E-10,  avg # of iterations =  2.0

     total cpu time spent up to now is       37.2 secs

     total energy              =     -15.74170971 Ry
     Harris-Foulkes estimate   =     -15.74170971 Ry
     estimated scf accuracy    <          2.0E-09 Ry

     iteration #  5     ecut=    40.00 Ry     beta=0.70
     Davidson diagonalization with overlap
     ethr =  2.52E-11,  avg # of iterations =  2.0

     total cpu time spent up to now is       37.7 secs

     End of self-consistent calculation

          k =-0.1240 0.1240 0.1240 (  1173 PWs)   bands (ev):

    -5.5611   4.4047   5.6953   5.6953

          k =-0.3720 0.3720-0.1240 (  1151 PWs)   bands (ev):

    -4.5381   1.4346   3.7266   5.2177

          k = 0.3720-0.3720 0.6199 (  1160 PWs)   bands (ev):

    -3.4008  -0.6353   3.7491   4.4513

          k = 0.1240-0.1240 0.3720 (  1160 PWs)   bands (ev):

    -5.0352   2.8035   4.6942   4.7627

          k =-0.1240 0.6199 0.1240 (  1157 PWs)   bands (ev):

    -4.0079   1.1086   3.3781   3.8248

          k = 0.6199-0.1240 0.8679 (  1157 PWs)   bands (ev):

    -2.3733  -0.8417   2.0301   3.0998

          k = 0.3720 0.1240 0.6199 (  1150 PWs)   bands (ev):

    -3.5932   0.2369   2.7421   4.0992

          k =-0.1240-0.8679 0.1240 (  1150 PWs)   bands (ev):

    -2.5419  -0.7439   2.6358   3.3602

          k =-0.3720 0.3720 0.3720 (  1155 PWs)   bands (ev):

    -4.1061   0.1488   4.9128   4.9128

          k = 0.3720-0.3720 1.1159 (  1150 PWs)   bands (ev):

    -2.9075  -0.5453   2.0904   4.1362

     highest occupied level (ev):     5.6953

!    total energy              =     -15.74170971 Ry
     Harris-Foulkes estimate   =     -15.74170971 Ry
     estimated scf accuracy    <          2.0E-11 Ry

     The total energy is the sum of the following terms:

     one-electron contribution =       4.58970515 Ry
     hartree contribution      =       1.11608728 Ry
     xc contribution           =      -4.78689780 Ry
     ewald contribution        =     -16.66060434 Ry

     convergence has been achieved in   5 iterations

     Forces acting on atoms (Ry/au):

     atom    1 type  1   force =     0.00000000    0.00000000    0.00000000
     atom    2 type  1   force =     0.00000000    0.00000000    0.00000000

     Total force =     0.000000     Total SCF correction =     0.000000


     entering subroutine stress ...

          total   stress  (Ry/bohr**3)                   (kbar)     P=    0.01
   0.00000008  -0.00000000  -0.00000000          0.01     -0.00     -0.00
  -0.00000000   0.00000008   0.00000000         -0.00      0.01      0.00
  -0.00000000   0.00000000   0.00000008         -0.00      0.00      0.01


     bfgs converged in   4 scf cycles and   3 bfgs steps
     (criteria: energy <  1.0E-04, force <  1.0E-05, cell <  5.0E-01)

     End of BFGS Geometry Optimization

     Final enthalpy =     -15.7417097071 Ry
Begin final coordinates
     new unit-cell volume =    276.89159 a.u.^3 (    41.03110 Ang^3 )

CELL_PARAMETERS (alat= 10.26250000)
  -0.504088460  -0.000000000   0.504088460
   0.000000000   0.504088460   0.504088460
  -0.504088460   0.504088460  -0.000000000

ATOMIC_POSITIONS (alat)
Si      -0.000000000  -0.000000000   0.000000000
Si       0.252044230   0.252044230   0.252044230
End final coordinates



     A final scf calculation at the relaxed structure.
     The G-vectors are recalculated for the final unit cell
     Results may differ from those at the preceding step.

   Info: using nr1, nr2, nr3 values from input

   Info: using nr1, nr2, nr3 values from input

     G-vector sticks info
     --------------------
     sticks:   dense  smooth     PW     G-vecs:    dense   smooth      PW
     Sum        1777     583    187                49229     9409    1639



     bravais-lattice index     =            2
     lattice parameter (alat)  =      10.2625  a.u.
     unit-cell volume          =     276.8916 (a.u.)^3
     number of atoms/cell      =            2
     number of atomic types    =            1
     number of electrons       =         8.00
     number of Kohn-Sham states=            4
     kinetic-energy cutoff     =      40.0000  Ry
     charge density cutoff     =     480.0000  Ry
     convergence threshold     =      1.0E-10
     mixing beta               =       0.7000
     number of iterations used =            8  plain     mixing
     Exchange-correlation      =  SLA  PW   PBE  PBE ( 1  4  3  4 0 0)

     celldm(1)=  10.262500  celldm(2)=   0.000000  celldm(3)=   0.000000
     celldm(4)=   0.000000  celldm(5)=   0.000000  celldm(6)=   0.000000

     crystal axes: (cart. coord. in units of alat)
               a(1) = (  -0.504088  -0.000000   0.504088 )  
               a(2) = (   0.000000   0.504088   0.504088 )  
               a(3) = (  -0.504088   0.504088  -0.000000 )  

     reciprocal axes: (cart. coord. in units 2 pi/alat)
               b(1) = ( -0.991889 -0.991889  0.991889 )  
               b(2) = (  0.991889  0.991889  0.991889 )  
               b(3) = ( -0.991889  0.991889 -0.991889 )  


     PseudoPot. # 1 for Si read from file:
     ./Si.pbe-rrkj.UPF
     MD5 check sum: 8af8e7039d270e0118f3b3651cf51d3d
     Pseudo is Norm-conserving, Zval =  4.0
     Generated by new atomic code, or converted to UPF format
     Using radial grid of  883 points,  3 beta functions with: 
                l(1) =   0
                l(2) =   0
                l(3) =   1

     atomic species   valence    mass     pseudopotential
        Si             4.00    28.08550     Si( 1.00)

     24 Sym. Ops. (no inversion) found
          (note: 24 additional sym.ops. were found but ignored
           their fractional translations are incommensurate with FFT grid)


   Cartesian axes

     site n.     atom                  positions (alat units)
         1           Si  tau(   1) = (  -0.0000000  -0.0000000   0.0000000  )
         2           Si  tau(   2) = (   0.2520442   0.2520442   0.2520442  )

     number of k points=    10
                       cart. coord. in units 2pi/alat
        k(    1) = (  -0.1239862   0.1239862   0.1239862), wk =   0.0625000
        k(    2) = (  -0.3719585   0.3719585  -0.1239862), wk =   0.1875000
        k(    3) = (   0.3719585  -0.3719585   0.6199309), wk =   0.1875000
        k(    4) = (   0.1239862  -0.1239862   0.3719585), wk =   0.1875000
        k(    5) = (  -0.1239862   0.6199309   0.1239862), wk =   0.1875000
        k(    6) = (   0.6199309  -0.1239862   0.8679032), wk =   0.3750000
        k(    7) = (   0.3719585   0.1239862   0.6199309), wk =   0.3750000
        k(    8) = (  -0.1239862  -0.8679032   0.1239862), wk =   0.1875000
        k(    9) = (  -0.3719585   0.3719585   0.3719585), wk =   0.0625000
        k(   10) = (   0.3719585  -0.3719585   1.1158756), wk =   0.1875000

     Dense  grid:    49229 G-vectors     FFT dimensions: (  54,  54,  54)

     Smooth grid:     9409 G-vectors     FFT dimensions: (  30,  30,  30)

     Estimated max dynamical RAM per process >      31.50Mb

     Initial potential from superposition of free atoms

     starting charge    7.99889, renormalised to    8.00000
     Starting wfc are    8 randomized atomic wfcs

     Writing output data file si.save

     total cpu time spent up to now is       41.8 secs

     per-process dynamical memory:    30.2 Mb

     Self-consistent Calculation

     iteration #  1     ecut=    40.00 Ry     beta=0.70
     Davidson diagonalization with overlap
     ethr =  1.00E-06,  avg # of iterations =  6.4

     total cpu time spent up to now is       42.7 secs

     total energy              =     -15.73921549 Ry
     Harris-Foulkes estimate   =     -15.75228328 Ry
     estimated scf accuracy    <       0.05692277 Ry

     iteration #  2     ecut=    40.00 Ry     beta=0.70
     Davidson diagonalization with overlap
     ethr =  7.12E-04,  avg # of iterations =  1.0

     total cpu time spent up to now is       43.2 secs

     total energy              =     -15.74130187 Ry
     Harris-Foulkes estimate   =     -15.74127224 Ry
     estimated scf accuracy    <       0.00263364 Ry

     iteration #  3     ecut=    40.00 Ry     beta=0.70
     Davidson diagonalization with overlap
     ethr =  3.29E-05,  avg # of iterations =  2.2

     total cpu time spent up to now is       43.7 secs

     total energy              =     -15.74168094 Ry
     Harris-Foulkes estimate   =     -15.74169906 Ry
     estimated scf accuracy    <       0.00005613 Ry

     iteration #  4     ecut=    40.00 Ry     beta=0.70
     Davidson diagonalization with overlap
     ethr =  7.02E-07,  avg # of iterations =  2.7

     total cpu time spent up to now is       44.3 secs

     total energy              =     -15.74171027 Ry
     Harris-Foulkes estimate   =     -15.74171000 Ry
     estimated scf accuracy    <       0.00000227 Ry

     iteration #  5     ecut=    40.00 Ry     beta=0.70
     Davidson diagonalization with overlap
     ethr =  2.84E-08,  avg # of iterations =  2.6

     total cpu time spent up to now is       44.9 secs

     total energy              =     -15.74171089 Ry
     Harris-Foulkes estimate   =     -15.74171088 Ry
     estimated scf accuracy    <       0.00000003 Ry

     iteration #  6     ecut=    40.00 Ry     beta=0.70
     Davidson diagonalization with overlap
     ethr =  3.75E-10,  avg # of iterations =  3.6

     total cpu time spent up to now is       45.5 secs

     total energy              =     -15.74171091 Ry
     Harris-Foulkes estimate   =     -15.74171091 Ry
     estimated scf accuracy    <          8.8E-10 Ry

     iteration #  7     ecut=    40.00 Ry     beta=0.70
     Davidson diagonalization with overlap
     ethr =  1.10E-11,  avg # of iterations =  2.4

     total cpu time spent up to now is       46.1 secs

     total energy              =     -15.74171091 Ry
     Harris-Foulkes estimate   =     -15.74171091 Ry
     estimated scf accuracy    <          1.7E-10 Ry

     iteration #  8     ecut=    40.00 Ry     beta=0.70
     Davidson diagonalization with overlap
     ethr =  2.13E-12,  avg # of iterations =  2.0

     total cpu time spent up to now is       46.6 secs

     End of self-consistent calculation

          k =-0.1240 0.1240 0.1240 (  1209 PWs)   bands (ev):

    -5.5611   4.4047   5.6953   5.6953

          k =-0.3720 0.3720-0.1240 (  1186 PWs)   bands (ev):

    -4.5381   1.4346   3.7266   5.2177

          k = 0.3720-0.3720 0.6199 (  1183 PWs)   bands (ev):

    -3.4008  -0.6353   3.7491   4.4513

          k = 0.1240-0.1240 0.3720 (  1190 PWs)   bands (ev):

    -5.0352   2.8035   4.6942   4.7627

          k =-0.1240 0.6199 0.1240 (  1188 PWs)   bands (ev):

    -4.0079   1.1086   3.3781   3.8248

          k = 0.6199-0.1240 0.8679 (  1181 PWs)   bands (ev):

    -2.3733  -0.8417   2.0301   3.0998

          k = 0.3720 0.1240 0.6199 (  1179 PWs)   bands (ev):

    -3.5932   0.2369   2.7421   4.0992

          k =-0.1240-0.8679 0.1240 (  1178 PWs)   bands (ev):

    -2.5419  -0.7439   2.6358   3.3602

          k =-0.3720 0.3720 0.3720 (  1179 PWs)   bands (ev):

    -4.1061   0.1488   4.9128   4.9128

          k = 0.3720-0.3720 1.1159 (  1175 PWs)   bands (ev):

    -2.9075  -0.5452   2.0905   4.1362

     highest occupied level (ev):     5.6953

!    total energy              =     -15.74171091 Ry
     Harris-Foulkes estimate   =     -15.74171091 Ry
     estimated scf accuracy    <          1.1E-12 Ry

     The total energy is the sum of the following terms:

     one-electron contribution =       4.58970368 Ry
     hartree contribution      =       1.11608624 Ry
     xc contribution           =      -4.78689649 Ry
     ewald contribution        =     -16.66060434 Ry

     convergence has been achieved in   8 iterations

     Forces acting on atoms (Ry/au):

     atom    1 type  1   force =     0.00000000   -0.00000000    0.00000000
     atom    2 type  1   force =    -0.00000000    0.00000000   -0.00000000

     Total force =     0.000000     Total SCF correction =     0.000000


     entering subroutine stress ...

          total   stress  (Ry/bohr**3)                   (kbar)     P=    0.01
   0.00000009  -0.00000000   0.00000000          0.01     -0.00      0.00
   0.00000000   0.00000009   0.00000000          0.00      0.01      0.00
  -0.00000000   0.00000000   0.00000009         -0.00      0.00      0.01


     Writing output data file si.save

     init_run     :      3.36s CPU      3.44s WALL (       2 calls)
     electrons    :     18.52s CPU     18.75s WALL (       5 calls)
     update_pot   :     10.54s CPU     10.60s WALL (       3 calls)
     forces       :      4.96s CPU      4.96s WALL (       5 calls)
     stress       :      8.89s CPU      8.99s WALL (       5 calls)

     Called by init_run:
     wfcinit      :      0.40s CPU      0.40s WALL (       2 calls)
     potinit      :      1.50s CPU      1.53s WALL (       2 calls)

     Called by electrons:
     c_bands      :      9.66s CPU      9.70s WALL (      34 calls)
     sum_band     :      2.52s CPU      2.53s WALL (      34 calls)
     v_of_rho     :      6.50s CPU      6.71s WALL (      37 calls)
     mix_rho      :      0.37s CPU      0.37s WALL (      34 calls)

     Called by c_bands:
     init_us_2    :      0.31s CPU      0.31s WALL (     800 calls)
     cegterg      :      9.44s CPU      9.48s WALL (     340 calls)

     Called by sum_band:

     Called by *egterg:
     h_psi        :      9.21s CPU      9.24s WALL (    1139 calls)
     g_psi        :      0.05s CPU      0.05s WALL (     779 calls)
     cdiaghg      :      0.09s CPU      0.09s WALL (    1069 calls)

     Called by h_psi:
     h_psi:pot    :      9.18s CPU      9.22s WALL (    1139 calls)
     h_psi:calbec :      0.15s CPU      0.15s WALL (    1139 calls)
     vloc_psi     :      8.90s CPU      8.94s WALL (    1139 calls)
     add_vuspsi   :      0.12s CPU      0.12s WALL (    1139 calls)

     General routines
     calbec       :      0.18s CPU      0.18s WALL (    1389 calls)
     fft          :      2.80s CPU      2.89s WALL (     547 calls)
     ffts         :      0.07s CPU      0.07s WALL (      71 calls)
     fftw         :      8.81s CPU      8.84s WALL (    9772 calls)
     interpolate  :      0.49s CPU      0.49s WALL (      71 calls)
     davcio       :      0.00s CPU      0.00s WALL (      20 calls)

     Parallel routines
     fft_scatter  :      0.62s CPU      0.63s WALL (   10390 calls)

     PWSCF        :    46.74s CPU        47.23s WALL


   This run was terminated on:  18:55:28  30May2020            

=------------------------------------------------------------------------------=
   JOB DONE.
=------------------------------------------------------------------------------=
